<?xml version="1.0"?>
<VTKFile type="UnstructuredGrid"  version="0.1"  >
<UnstructuredGrid>
<Piece  NumberOfPoints="513" NumberOfCells="940">
<Points>
<DataArray  type="Float64"  NumberOfComponents="3"  format="ascii">-1.996487463528643 0.05924062789371414 0  -1.996487463528643 -0.05924062789371389 0  -1.968461155895194 -0.1768902751225729 0  -1.912801968553045 -0.2920567706369757 0  -1.830291234486037 -0.403123429287972 0  -1.722087223534711 -0.5085311186492202 0  -1.589708882826707 -0.6068001458185934 0  -1.435014514088662 -0.6965510290629969 0  -1.260175687163422 -0.7765238627180426 0  -1.067646755929582 -0.845596003501826 0  -0.8601304045530408 -0.9027978299657435 0  -0.6405397077256761 -0.9473263538541913 0  -0.411957237482197 -0.9785564922995039 0  -0.1775917906458709 -0.9960498426152169 0  0.05926665564511884 -0.9995608365087943 0  0.2952931280049608 -0.9890401873221641 0  0.527174332138136 -0.9646355819083585 0  0.751655164228476 -0.9266896074318335 0  0.9655844054614885 -0.8757349421956372 0  1.165958958228944 -0.8124868780056815 0  1.34996600303642 -0.7378332790417279 0  1.51502248432324 -0.6528221181905214 0  1.658811370900403 -0.5586467658036526 0  1.779314181989494 -0.4566292373937137 0  1.874839322268242 -0.3482016354343991 0  1.944045828160821 -0.2348860457809837 0  1.985962192027034 -0.1182731709213655 0  2 0 0  1.985962192027034 0.1182731709213658 0  1.944045828160821 0.2348860457809837 0  1.874839322268242 0.3482016354343987 0  1.779314181989495 0.4566292373937131 0  1.658811370900404 0.5586467658036525 0  1.51502248432324 0.6528221181905216 0  1.349966003036421 0.7378332790417272 0  1.165958958228944 0.8124868780056813 0  0.9655844054614897 0.8757349421956369 0  0.7516551642284764 0.9266896074318334 0  0.5271743321381356 0.9646355819083586 0  0.2952931280049625 0.9890401873221639 0  0.05926665564511933 0.9995608365087943 0  -0.1775917906458696 0.9960498426152169 0  -0.4119572374821965 0.978556492299504 0  -0.6405397077256753 0.9473263538541914 0  -0.8601304045530411 0.9027978299657434 0  -1.067646755929581 0.8455960035018261 0  -1.260175687163422 0.7765238627180424 0  -1.435014514088662 0.6965510290629972 0  -1.589708882826707 0.6068001458185932 0  -1.722087223534711 0.5085311186492207 0  -1.830291234486036 0.4031234292879726 0  -1.912801968553045 0.2920567706369759 0  -1.968461155895194 0.1768902751225732 0  -0.04437192562528219 -1.110223024625157e-16 0  0.8335019697246084 1.110223024625157e-16 0  -1.01069632546953 -2.220446049250313e-16 0  0.394565022049663 0.3915682798456984 0  0.3522735769994738 -0.4166259468104853 0  -0.4501418133162245 -0.4058946391688135 0  -0.5275341255474064 0.3571904065178694 0  1.402811141311738 -0.02863577831590736 0  -1.505110583116499 -0.004348640878122007 0  -0.07007229586901711 0.4706114679393218 0  1.135878682779004 0.3380165044918498 0  1.092833098962949 -0.3681472894068038 0  -1.024960806723425 0.4237550869473216 0  -0.8965663034441403 -0.4324023868401529 0  0.4257577673292915 -0.01526761750505657 0  -0.04880146964036752 -0.4013417242647433 0  -0.609996857479466 -0.03664008677695513 0  0.7764343603392557 0.5200063928411779 0  -1.25532059132525 -0.2958302724023456 0  0.7316260989427333 -0.5309820306136809 0  0.1635771678461424 -0.6868854897921447 0  -0.246451570643741 -0.6698380193821327 0  -1.259714539540687 0.2037351564202541 0  1.518276280417643 0.2704695700837146 0  -0.6908677295989228 0.6318012664177828 0  -0.3561084931681804 0.6450306677727666 0  0.1638806010293832 0.6936928894655447 0  1.412801071332795 -0.3490192759252495 0  1.699553339233205 0.02430973105632423 0  -0.2518873568825088 0.2246749498938432 0  -0.7897840887715968 0.2065534385918957 0  0.6076160326420545 -0.255970046464524 0  0.5149341374549093 0.6655912698028861 0  0.656818237272671 0.2437446228256755 0  0.1965191203790426 0.1717700434746645 0  0.480511411790457 -0.6776131883692138 0  0.1595877572559508 -0.202946376407368 0  -0.6952511143331472 -0.6534177590430962 0  -0.3199308255648766 -0.1302956997878116 0  1.114997602589489 -0.07712117164856008 0  -1.588189954513241 0.2628406362783141 0  -1.540849884298197 -0.2877476669998906 0  -0.1015892618914199 0.7378821549966836 0  0.984934541688795 -0.6108418792182178 0  -1.289474589725681 0.4707351740069162 0  -1.08665265035861 -0.5957124721702188 0  -1.258821777610901 -0.04605902924274002 0  0.8502301023130975 -0.3120347200353727 0  -1.743975485730547 0.06789003627623295 0  1.354637669048914 0.4602671346642423 0  -0.6812184677598236 -0.2867017660762444 0  0.9065810204143958 0.2388818674221514 0  0.9982544135989968 0.6302112026205189 0  0.1665915452628685 0.4566320343140797 0  1.643609433971312 -0.2295110592353919 0  1.228897703319037 0.1252437364818905 0  -0.02216285563254133 0.2450191000369092 0  1.262720784173248 -0.5242495448299814 0  -0.05623132843131799 -0.8000582762946564 0  -0.4697525707663631 -0.6315961943851917 0  -1.027007246476508 -0.235568331512759 0  -0.4148002828574778 0.07189646706722697 0  -1.298130715996915 -0.5172832284499946 0  -0.8189404187382681 -0.1123029543339003 0  -0.7370961191143197 0.4184260751230292 0  -0.9317026476750988 0.6462719977687397 0  -0.3227581349090246 0.4302014854234543 0  -1.002271856080982 0.2124012148235126 0  -0.5285970907866302 0.7676945336776307 0  -1.728342346144232 -0.1590082969159225 0  0.6311830346458001 -0.04911339652109786 0  0.4001817229625221 0.1873851741126957 0  0.4062022643064033 -0.2190934536377693 0  0.7167608759140704 0.7204669943531312 0  1.282464896642745 -0.1927358117944032 0  0.5922458172034981 0.435729904674534 0  0.9578057274831191 0.4332843316584376 0  -0.0411565609533259 -0.2007307936769273 0  -0.2502868243013957 -0.3317596556351642 0  0.1519428485689092 -0.4035573069951841 0  -0.05935116928589174 -0.6005726381785583 0  -1.136016514976983 0.61032967934319 0  -0.5924559654036137 0.1666162072424275 0  0.8095761849647186 -0.7253972049714559 0  0.5378371696683055 -0.4874469103713062 0  -0.8917891692794997 -0.6302442380869808 0  1.200891035781411 0.5965018388195157 0  -0.2780107597553512 0.8262161750274 0  -0.5033004430771811 -0.2022023239551433 0  0.3481310803116034 0.7886211939504215 0  0.3242103985853413 0.5769804361418088 0  1.038512265003667 0.09916473918132254 0  -0.2293132009869575 0.03735429850930291 0  0.2303673457241288 -0.0207441291886811 0  -1.394719062535953 -0.1728741398095207 0  1.760608441715313 0.2006446945278364 0  0.6152999340820416 -0.8030041543524126 0  -0.6306547630189209 -0.472263103015198 0  -1.079370300848389 -0.4119073731104717 0  -1.40792213345312 0.3223743604279201 0  0.3253762999537021 -0.7961399542484453 0  -0.5690065631474784 -0.7819637891814336 0  1.308146044456154 0.2866083598194664 0  1.79565695807793 -0.1299478014456687 0  0.9435639145538256 -0.1505653526388016 0  -0.3846472892732951 -0.7957134915897158 0  -1.564784990737333 0.4349271013813491 0  0.7652519359079073 -0.1601246299543728 0  -1.453655128169506 0.158161745779481 0  -0.3010385915422988 -0.5013963335566463 0  -0.4692729732340018 0.5174596010994869 0  -0.1924472852216656 0.5916744308422535 0  0.1639615635365866 -0.8607507298317802 0  -1.474905574047988 -0.4611135538629514 0  -0.2195090010350433 -0.8345244231762282 0  0.5508195069514229 0.1034562767332349 0  0.3194839856389509 -0.5947362145242855 0  1.584081226184878 -0.3971794375707525 0  -0.8459540174072944 -0.2752140767608544 0  1.3987360237878 0.1419761243152463 0  0.946477603483116 -0.4484120966961055 0  -1.754243167786916 0.2358145791711367 0  0.04938419350397265 0.8253566311697542 0  0.05477357711779259 0.5738992517894644 0  1.540091341945122 0.05999782033231321 0  -1.153738537240222 0.07921522540356485 0  -1.174780516126256 0.3483605243786625 0  1.527843764075554 0.4441597074604751 0  1.668400498005054 0.336058391428868 0  1.25232556930813 -0.3503613454125123 0  1.427230599561512 -0.5132629182319801 0  1.447501660428598 -0.1875897735826204 0  -0.8517936905278979 0.05146238779089354 0  -0.8926819382965043 0.3310605223394008 0  -0.6879156018052659 0.7931067301292842 0  -0.7273328762130786 -0.8116277294502083 0  -1.697630865038919 -0.3151800501011776 0  0.7838694505731785 0.3527604945012495 0  0.5833466204061174 0.8125637337321516 0  1.570377213032894 -0.09243466408123494 0  -1.296918270519098 0.6257463544255646 0  -0.4479284707770427 0.2237262176232128 0  -0.1825287813900935 0.3635738425688936 0  1.148350860811263 -0.6462155739810785 0  -0.1612700958777415 -0.1022636583102247 0  0.659730616307902 -0.3979358998070032 0  1.849664173657829 0.01076451550392871 0  0.517927290913765 0.3038817765533486 0  0.7798639459215611 0.1470281664984736 0  0.2032530367764527 0.8435472556036334 0  -0.816791972638419 0.5473877830007371 0  -1.166508909157962 -0.1696751876437472 0  0.6380375005753547 0.5790637069588176 0  0.4646679905278036 0.5242229493934719 0  -0.7742279685640843 -0.5231618432370533 0  0.4852213381098052 -0.3467944161685751 0  0.2901504274104741 0.2865272213801123 0  0.05570891321244775 0.1144445421908588 0  0.6324324223956046 -0.6494469767849528 0  0.8496787721162669 0.6509220830988016 0  -0.1290206342415388 0.1444611730762279 0  0.858619784844983 0.9012122748137351 0  1.08242957677596 0.5103041579574622 0  -1.437809363022851 0.5349410434285952 0  1.074942760932661 -0.2204276826150605 0  1.258212324164898 -0.04877041875166704 0  -0.6703246198517135 0.2893340257505753 0  0.4696547715542653 -0.8284345578949004 0  0.0891623446532685 -0.5480382276677024 0  -0.4679706657950741 -0.0622727689710941 0  0.08846027097501771 -0.07046678796189219 0  0.2588217427442115 -0.3071791305574567 0  0.1204690896080425 0.3077833236810079 0  -1.841463911844999 -0.05281457233653795 0  -1.535238712644562 -0.1445022436486218 0  -1.398828067748676 -0.3180304718079182 0  -0.606376644047279 0.4765754469768619 0  -0.8321226027927814 0.7567360272968056 0  -0.3741438240994598 -0.261806154031747 0  -0.05916256750037511 0.9978053395620057 0  -0.7066027136674438 0.07408196974050621 0  1.091659578079523 -0.5129579343818057 0  -1.332628665244513 0.07857587386912931 0  0
[...]
<PointData  Scalars="f_14"> 
<DataArray  type="Float64"  Name="f_14"  format="ascii">9.4531116370823329e-02  9.3968413713414772e-02  8.8546353154806301e-02  7.9267439099052414e-02  6.8744866519331191e-02  6.1072438375519809e-02  6.0897885123130269e-02  6.3780530950517819e-02  6.0338175570605071e-02  4.0349421426638298e-02  1.1568427400823832e-02  -9.1199272289532972e-03  -1.2926745612593380e-02  -6.2613667277506072e-03  4.1808683547848178e-03  1.3344093073953360e-02  1.5734554158483210e-02  3.2215213080459123e-03  -2.3465181514428685e-02  -5.1503908721335277e-02  -6.5068057581659094e-02  -6.6089745520197724e-02  -6.4580383898833180e-02  -6.8628663562346551e-02  -7.7715746664408974e-02  -8.7883888159228735e-02  -9.3287506417839672e-02  -9.6126269474237303e-02  -9.4185997487553560e-02  -8.7365773686852166e-02  -7.8226265350845162e-02  -7.0347000202623619e-02  -6.7629159871804206e-02  -7.0450448876929903e-02  -7.2294464224105487e-02  -5.8798325130187117e-02  -3.1604275148066172e-02  -3.3272025967300608e-03  1.0803844787777590e-02  9.6963461566577716e-03  1.7868526199456070e-03  -8.1654339123230727e-03  -1.4662164736263387e-02  -9.4671070599688344e-03  1.2584331160033164e-02  4.2678131529871273e-02  6.3459255714927457e-02  6.9342360598571434e-02  6.6461222172034165e-02  6.6599372037796520e-02  7.2950431063300680e-02  8.2801378208562315e-02  9.0420594387965458e-02  -3.4293615181711151e-03  -5.5837373898409495e-03  1.0347345068694726e-02  6.6836277238522981e-04  3.3731419808570679e-03  -2.9888221402601615e-03  -3.0838127509670217e-03  -3.4023642051817647e-02  4.5123719025222934e-02  -2.8576977498154963e-03  -3.2853416496711613e-02  -2.7829046776036728e-02  2.7684270890767960e-02  1.4741810749558458e-02  1.5298353599287626e-04  -5.5519594237729683e-04  9.6034243866248664e-04  -9.2464686140873199e-03  3.3045492594794980e-02  -9.2860024625354720e-04  5.2520183097699170e-03  -4.8303351100630687e-03  2.9233595473525352e-02  -5.4624877468716193e-02  -1.0523106036531495e-03  -8.4347390778114588e-03  2.4961182669137076e-03  -4.8625083264584312e-02  -7.2552853344589996e-02  -4.2456961526642027e-03  5.2115593259202189e-03  4.7858426882895893e-04  5.7740999694834167e-03  -2.7053088202215868e-03  -1.2252323784678117e-03  1.0942062459480583e-02  -2.0710742312338937e-04  -6.1864070332847657e-04  -3.4063778214091871e-03  -1.4117181127096395e-02  5.9318667210268843e-02  5.1966730130104929e-02  -4.2203262742641842e-03  -2.8760921310768791e-02  5.3853627423521774e-02  4.1918633896912007e-02  2.1676427401612759e-02  -7.8178543595909603e-03  7.7099600988803155e-02  -5.8835193658684726e-02  1.8208611256520042e-03  -1.1725993017302152e-02  -3.8007337968783084e-02  -1.0846062606661999e-03  -6.3584524800078174e-02  -2.3098141534906743e-02  -3.3364945598931849e-03  -5.3885856229328948e-02  -6.5012908661042049e-04  -7.2518101442406290e-03  1.6026536115317527e-02  -3.0559417175873476e-03  5.3672504315480374e-02  5.7413213669717279e-03  3.2871196430367166e-03  2.5465238932046580e-02  -4.4724748488228416e-03  1.4880327876738930e-02  -1.1236951318771211e-02  7.1776320437682839e-02  -1.7467645809119102e-03  -1.7216416967334245e-04  1.4046888712070970e-03  -3.3143552840835628e-03  -2.8682432783220552e-02  -4.6308596960662222e-05  -2.4027598781674108e-02  -2.1291063651277310e-03  -1.9469227964414245e-03  8.8721175354832319e-04  -2.3212717561033053e-04  5.0500393528809334e-02  -2.1022453801438100e-04  -6.4540795967107049e-03  5.4998766041130034e-03  1.8761112769024951e-02  -6.0131557111536171e-02  -1.0538453907501034e-02  -1.2664734546415108e-03  8.7329352622008728e-03  3.1399092296816437e-03  -1.2480729327534888e-02  -4.6586609765815971e-03  -1.2382894912113399e-04  3.5718592767411045e-02  -7.6785689599768503e-02  1.0672657681674086e-02  -1.6042704127122180e-03  2.9959673440238161e-02  4.8166546559048160e-02  1.2128211178195677e-02  -9.5971575488588805e-03  -3.9891932443471174e-02  -8.2498524993446357e-02  -8.9722723081598899e-03  -1.0540136527859689e-02  6.2267909572104242e-02  -3.6532269316507850e-03  4.2788518953412048e-02  -2.9106645315407423e-03  -6.3038809074366080e-03  -4.7496770965504784e-03  7.9845638375642732e-03  5.5715263099912871e-02  -7.0527857930291040e-03  -1.1559674743727094e-03  6.7673000646532649e-03  -6.0728974490451629e-02  8.1983171745644168e-03  -3.7153179120943146e-02  -1.8768521126938942e-02  7.4484148634674716e-02  8.4441696086916024e-04  -1.2555313964898742e-03  -5.1134003502279340e-02  1.6722303174508547e-02  3.4921022630770654e-02  -6.3188371913372440e-02  -6.6987481322416456e-02  -3.8234222998408292e-02  -6.0400895114799090e-02  -4.2380313215041612e-02  6.4599546720009110e-03  1.2466547831215325e-02  -3.8091666884191985e-03  -9.0388494745506989e-04  6.3990202283826736e-02  -7.9278001894506900e-03  7.0639550404248061e-03  -5.4732458953359556e-02  6.4448929573198033e-02  -3.0535719627388476e-03  -3.6645272555320845e-03  -5.0362547896275887e-02  -3.8218939480168918e-03  1.4043855767464743e-03  -8.9778383135509107e-02  -1.2694845376522374e-04  -5.4209707302305885e-03  6.2788424206771457e-03  1.0427753795737797e-02  1.9685260796812119e-02  4.4623209407658178e-04  3.1995192212118150e-03  5.9501341729622540e-03  3.0783405146325776e-03  -7.3165204634732101e-04  -2.4998009614030734e-03  6.6808369897956906e-03  -1.8358740878307755e-02  -4.3184150827454536e-03  -1.6500505094010489e-02  -4.2452346821654476e-02  6.4129462633786438e-02  -1.7302512261018550e-02  -2.1645546648742388e-02  9.2682062718544254e-04  1.4891911230048543e-02  1.6733591329492507e-03  -1.8535171729775419e-03  -1.4455363649337771e-03  1.1195319900286604e-03  -2.1940312478654789e-03  8.7089953150417676e-02  4.9011120653398313e-02  4.3500456446823627e-02  -3.1740293982421060e-03  1.2034798711614034e-02  -2.3757233255419247e-03  -3.2760102078798286e-03  2.8995039810029133e-03  -3.7465281673626699e-02  2.8565763206686686e-02  2.7341478810563759e-04  -6.6266222134987068e-04  5.8604092735307339e-02  3.4728425589640281e-02  -6.8679377532433111e-02  6.7291077381084682e-02  1.4218965668756240e-02  6.2700708594008142e-02  -1.2334430777041464e-03  -3.8332670739542399e-02  -6.6079064988758748e-03  -5.2947118461701460e-05  -8.5865657183097892e-03  -4.9973646882031347e-02  5.8454208345073762e-02  -2.4000655662802538e-02  -1.1775981261627827e-02  7.5588503949773741e-04  4.4490261779243812e-02  -6.7920207677321237e-02  6.4153737315723144e-02  5.9044454849050007e-02  -6.2515533970793138e-02  5.1481175142944910e-02  -1.3642975753521782e-03  2.5851442452211847e-03  5.3695770882259417e-03  -1.8935639349019127e-02  2.1456230232177038e-02  -1.1990955080101404e-02  -7.5590269677187167e-03  3.1202047682935808e-03  -3.0794911952567294e-02  8.9120080131000382e-02  2.7268789676854442e-02  -1.2452783413560570e-02  -4.7076098396405577e-04  1.0725593872999791e-02  -2.3670644199063999e-03  2.7771273734553691e-02  -5.4161674710659705e-02  -5.3705413234909606e-02  -8.5499163573125921e-03  3.1510434730779469e-02  -7.5951951575643079e-03  1.4900145432437908e-02  -2.1304584155511673e-03  -4.5808028135576224e-03  -1.6130707102661283e-02  -2.8613706840491825e-03  -5.5044367320755544e-02  3.6392519358392191e-03  -1.6930911547331929e-03  -2.8760690488534610e-03  -2.9656516716401260e-03  5.5169358151745042e-02  4.2784100880846949e-02  6.3038827606229876e-03  -6.7072500304727348e-02  -2.3851314859660251e-02  4.4247468426294637e-02  1.7174149260318228e-02  9.5584471088384203e-03  -3.9951517033388470e-03  3.4452730106318517e-02  -1.4018126570984326e-02  8.2338690404920173e-02  -1.0412872402827454e-02  -8.8022078083375130e-02  6.1044768780691469e-02  -6.3004567708765905e-02  1.0383027426784999e-03  3.6939327913475739e-04  1.5861691359991888e-02  -1.1550003394027817e-03  6.5015141395456943e-03  9.0951636306331306e-03  1.2208341212849189e-02  1.5578984817227953e-02  2.4839868268281322e-02  -6.4156566043543195e-02  -1.2277208772498265e-02  -4.6735184916669177e-02  4.0147331127807301e-02  -7.7273954966932318e-02  1.1699660236730334e-02  -2.7489468700706485e-02  -1.6400141043754531e-02  -2.5137012034043602e-02  -1.3957716578801457e-02  -5.0587577676316199e-02  -3.1935526660854217e-03  -3.7079315821212785e-03  2.5503999905717488e-03  -3.4897142543946972e-03  -8.8163388509776303e-03  5.1410761128101626e-02  -4.0814822973017396e-02  -6.9890120074116185e-02  -4.0969701353248556e-03  2.7295306217742493e-02  5.9304414624648527e-03  1.1842229611695227e-02  5.9387655313966364e-02  2.1180189695674582e-03  -4.5203824163933468e-03  -5.7864629558923427e-03  -6.5822802128435954e-03  -4.6576869978410497e-03  4.2270660303037659e-02  -3.8891254692623297e-03  2.5972279507005681e-02  3.5515230577828428e-03  -4.0273650674041900e-02  -4.5901170525216336e-04  -5.7824753185083924e-04  -3.5494235192658039e-03  -1.0236495932655157e-03  -4.0015365053822733e-03  4.9786766553987005e-02  -6.6573957472138151e-02  7.6195077241769660e-03  -6.0302634385632756e-02  2.7706410955665201e-02  -1.2367651270043648e-03  9.8847074481887617e-03  -5.8166189759014542e-03  -8.8038977580172616e-03  -2.6354430618817117e-02  2.3823438480006856e-02  -1.2626088281895860e-02  -6.8046323991642219e-02  5.7542055413865763e-03  1.7152312591340452e-03  -4.6258179812758869e-03  7.2687315079543763e-02  -1.9848923254711888e-02  5.5791214387681698e-02  3.9713845452703624e-03  -2.4015089827561903e-03  5.1197503951005358e-03  6.3014575873857389e-03  -6.7142165781797795e-03  9.3353274092981518e-03  3.7718325610233824e-03  -1.0508564038061649e-02  -1.0509119761768420e-02  -5.0480900202968707e-02  6.7992308987898449e-04  -4.4759934590317053e-02  -1.9139951049716298e-03  -1.1507504628505811e-03  -6.8751173149565983e-02  8.6597249029145909e-03  -1.4733165003250461e-03  3.0887670370655924e-03  3.9902769099280679e-03  -5.8830631225404188e-03  -2.7217533921389107e-03  -6.2312832127948220e-02  -1.0034649568411253e-02  -6.6634668304021830e-04  -7.3039037729105260e-04  -3.5397343700258582e-03  6.0696654345910039e-02  9.5634867669467782e-03  -7.4683193181749347e-02  -5.7773337438416792e-03  -5.8199291954554998e-02  8.4731210414043301e-02  1.2373073229886933e-03  2.3225041537416852e-03  -6.1111044201915326e-05  -4.5700705680290515e-05  -6.5596842426949978e-02  -2.2640059642703931e-03  -2.4254230190001334e-03  -3.8843176680043633e-02  -2.0479152227409075e-02  -2.9754056132510295e-02  1.5474699917010521e-03  -1.1348598717985210e-03  -1.3313382184724401e-02  1.1854229586051011e-03  -2.6831576219495793e-03  4.5238456537755080e-03  5.5671507659326616e-02  7.5796685522947299e-02  -3.2377372364418948e-02  1.4221180650802535e-02  1.0519370835473961e-02  7.9134608626422551e-03  8.5391818189698553e-03  2.0171973957153623e-04  2.1354294200855452e-03  -1.4541709157314068e-03  -1.9957153831167075e-03  -1.5491921394790813e-02  -2.9901267884206656e-03  1.9810606321267715e-04  3.7056178724386004e-05  -1.1952371441116684e-03  1.4199439356392774e-02  -1.2988399813692632e-03  -2.1577727845644352e-03  -9.5846389689571265e-06  -3.1120256956869621e-03  3.4493412350663978e-02  4.7576592625177098e-03  8.2200508114899859e-03  1.5151282731028008e-02  7.5642993200906753e-03  3.0743425963359407e-02  -1.1621889155523496e-03  6.9923850352694911e-02  -2.3547271912551172e-03  3.4584369587840463e-04  -1.6577368841289209e-04  -8.1627225256169902e-02  4.5283732950872633e-03  8.6919453614505583e-03  -2.7836545054760976e-03  -4.7886544218681476e-04  -2.4897809167912324e-04  3.4400207242303387e-04  -5.3822770191962979e-02  -5.8076442621302654e-02  -1.3234480065377113e-02  6.2588981542792771e-02  -6.8033763217067125e-02  -4.1757494434569928e-02  5.5862276461246925e-02  8.2232309624843101e-04  6.8058028558537931e-02  -1.2068694331272955e-02  -1.7219456488560936e-02  2.1240061545212671e-02  4.9940895633874965e-02  3.6911958800030224e-02  9.1345475990817562e-02  -1.0947426561110059e-02  -1.0097962580242890e-02  -6.0066627711186732e-02  -9.0827270419715458e-02  -4.0543381874435600e-03  5.8188928292203417e-03  -4.4406116438186309e-03  -4.2554939882061488e-03  -3.5607319386685324e-03  4.1469034190190369e-03  -1.2717028534070203e-02  8.7839248054569132e-04  -7.8291230852761597e-03  -7.4321547855539438e-03  -8.2020588828601193e-02  2.0938455233571753e-03  -6.5956760034774934e-03  -1.0748163365212011e-02  -6.6954183365144681e-03  4.4441701235161078e-03  3.9708686606366297e-02  4.4020411764862717e-02  -6.5801648585145270e-02  -7.2510770886786674e-02  5.9090170194196906e-02  5.3777928722326403e-02  -4.2102732110811409e-03  -5.0350048868888997e-02  -1.0564202406664114e-02  -3.7183770775304713e-03  -7.1309552183494912e-02  1.1526234352784596e-02  1.2478064675180740e-02  1.3782212636675022e-02  2.1682088995319222e-02  2.2001988081551235e-02  7.3473774729246225e-02  </DataArray> 
</PointData> 
</Piece>
</UnstructuredGrid>
</VTKFile>