<?xml version="1.0"?>
<VTKFile type="UnstructuredGrid"  version="0.1"  >
<UnstructuredGrid>
<Piece  NumberOfPoints="513" NumberOfCells="940">
<Points>
<DataArray  type="Float64"  NumberOfComponents="3"  format="ascii">-1.996487463528643 0.05924062789371414 0  -1.996487463528643 -0.05924062789371389 0  -1.968461155895194 -0.1768902751225729 0  -1.912801968553045 -0.2920567706369757 0  -1.830291234486037 -0.403123429287972 0  -1.722087223534711 -0.5085311186492202 0  -1.589708882826707 -0.6068001458185934 0  -1.435014514088662 -0.6965510290629969 0  -1.260175687163422 -0.7765238627180426 0  -1.067646755929582 -0.845596003501826 0  -0.8601304045530408 -0.9027978299657435 0  -0.6405397077256761 -0.9473263538541913 0  -0.411957237482197 -0.9785564922995039 0  -0.1775917906458709 -0.9960498426152169 0  0.05926665564511884 -0.9995608365087943 0  0.2952931280049608 -0.9890401873221641 0  0.527174332138136 -0.9646355819083585 0  0.751655164228476 -0.9266896074318335 0  0.9655844054614885 -0.8757349421956372 0  1.165958958228944 -0.8124868780056815 0  1.34996600303642 -0.7378332790417279 0  1.51502248432324 -0.6528221181905214 0  1.658811370900403 -0.5586467658036526 0  1.779314181989494 -0.4566292373937137 0  1.874839322268242 -0.3482016354343991 0  1.944045828160821 -0.2348860457809837 0  1.985962192027034 -0.1182731709213655 0  2 0 0  1.985962192027034 0.1182731709213658 0  1.944045828160821 0.2348860457809837 0  1.874839322268242 0.3482016354343987 0  1.779314181989495 0.4566292373937131 0  1.658811370900404 0.5586467658036525 0  1.51502248432324 0.6528221181905216 0  1.349966003036421 0.7378332790417272 0  1.165958958228944 0.8124868780056813 0  0.9655844054614897 0.8757349421956369 0  0.7516551642284764 0.9266896074318334 0  0.5271743321381356 0.9646355819083586 0  0.2952931280049625 0.9890401873221639 0  0.05926665564511933 0.9995608365087943 0  -0.1775917906458696 0.9960498426152169 0  -0.4119572374821965 0.978556492299504 0  -0.6405397077256753 0.9473263538541914 0  -0.8601304045530411 0.9027978299657434 0  -1.067646755929581 0.8455960035018261 0  -1.260175687163422 0.7765238627180424 0  -1.435014514088662 0.6965510290629972 0  -1.589708882826707 0.6068001458185932 0  -1.722087223534711 0.5085311186492207 0  -1.830291234486036 0.4031234292879726 0  -1.912801968553045 0.2920567706369759 0  -1.968461155895194 0.1768902751225732 0  -0.04437192562528219 -1.110223024625157e-16 0  0.8335019697246084 1.110223024625157e-16 0  -1.01069632546953 -2.220446049250313e-16 0  0.394565022049663 0.3915682798456984 0  0.3522735769994738 -0.4166259468104853 0  -0.4501418133162245 -0.4058946391688135 0  -0.5275341255474064 0.3571904065178694 0  1.402811141311738 -0.02863577831590736 0  -1.505110583116499 -0.004348640878122007 0  -0.07007229586901711 0.4706114679393218 0  1.135878682779004 0.3380165044918498 0  1.092833098962949 -0.3681472894068038 0  -1.024960806723425 0.4237550869473216 0  -0.8965663034441403 -0.4324023868401529 0  0.4257577673292915 -0.01526761750505657 0  -0.04880146964036752 -0.4013417242647433 0  -0.609996857479466 -0.03664008677695513 0  0.7764343603392557 0.5200063928411779 0  -1.25532059132525 -0.2958302724023456 0  0.7316260989427333 -0.5309820306136809 0  0.1635771678461424 -0.6868854897921447 0  -0.246451570643741 -0.6698380193821327 0  -1.259714539540687 0.2037351564202541 0  1.518276280417643 0.2704695700837146 0  -0.6908677295989228 0.6318012664177828 0  -0.3561084931681804 0.6450306677727666 0  0.1638806010293832 0.6936928894655447 0  1.412801071332795 -0.3490192759252495 0  1.699553339233205 0.02430973105632423 0  -0.2518873568825088 0.2246749498938432 0  -0.7897840887715968 0.2065534385918957 0  0.6076160326420545 -0.255970046464524 0  0.5149341374549093 0.6655912698028861 0  0.656818237272671 0.2437446228256755 0  0.1965191203790426 0.1717700434746645 0  0.480511411790457 -0.6776131883692138 0  0.1595877572559508 -0.202946376407368 0  -0.6952511143331472 -0.6534177590430962 0  -0.3199308255648766 -0.1302956997878116 0  1.114997602589489 -0.07712117164856008 0  -1.588189954513241 0.2628406362783141 0  -1.540849884298197 -0.2877476669998906 0  -0.1015892618914199 0.7378821549966836 0  0.984934541688795 -0.6108418792182178 0  -1.289474589725681 0.4707351740069162 0  -1.08665265035861 -0.5957124721702188 0  -1.258821777610901 -0.04605902924274002 0  0.8502301023130975 -0.3120347200353727 0  -1.743975485730547 0.06789003627623295 0  1.354637669048914 0.4602671346642423 0  -0.6812184677598236 -0.2867017660762444 0  0.9065810204143958 0.2388818674221514 0  0.9982544135989968 0.6302112026205189 0  0.1665915452628685 0.4566320343140797 0  1.643609433971312 -0.2295110592353919 0  1.228897703319037 0.1252437364818905 0  -0.02216285563254133 0.2450191000369092 0  1.262720784173248 -0.5242495448299814 0  -0.05623132843131799 -0.8000582762946564 0  -0.4697525707663631 -0.6315961943851917 0  -1.027007246476508 -0.235568331512759 0  -0.4148002828574778 0.07189646706722697 0  -1.298130715996915 -0.5172832284499946 0  -0.8189404187382681 -0.1123029543339003 0  -0.7370961191143197 0.4184260751230292 0  -0.9317026476750988 0.6462719977687397 0  -0.3227581349090246 0.4302014854234543 0  -1.002271856080982 0.2124012148235126 0  -0.5285970907866302 0.7676945336776307 0  -1.728342346144232 -0.1590082969159225 0  0.6311830346458001 -0.04911339652109786 0  0.4001817229625221 0.1873851741126957 0  0.4062022643064033 -0.2190934536377693 0  0.7167608759140704 0.7204669943531312 0  1.282464896642745 -0.1927358117944032 0  0.5922458172034981 0.435729904674534 0  0.9578057274831191 0.4332843316584376 0  -0.0411565609533259 -0.2007307936769273 0  -0.2502868243013957 -0.3317596556351642 0  0.1519428485689092 -0.4035573069951841 0  -0.05935116928589174 -0.6005726381785583 0  -1.136016514976983 0.61032967934319 0  -0.5924559654036137 0.1666162072424275 0  0.8095761849647186 -0.7253972049714559 0  0.5378371696683055 -0.4874469103713062 0  -0.8917891692794997 -0.6302442380869808 0  1.200891035781411 0.5965018388195157 0  -0.2780107597553512 0.8262161750274 0  -0.5033004430771811 -0.2022023239551433 0  0.3481310803116034 0.7886211939504215 0  0.3242103985853413 0.5769804361418088 0  1.038512265003667 0.09916473918132254 0  -0.2293132009869575 0.03735429850930291 0  0.2303673457241288 -0.0207441291886811 0  -1.394719062535953 -0.1728741398095207 0  1.760608441715313 0.2006446945278364 0  0.6152999340820416 -0.8030041543524126 0  -0.6306547630189209 -0.472263103015198 0  -1.079370300848389 -0.4119073731104717 0  -1.40792213345312 0.3223743604279201 0  0.3253762999537021 -0.7961399542484453 0  -0.5690065631474784 -0.7819637891814336 0  1.308146044456154 0.2866083598194664 0  1.79565695807793 -0.1299478014456687 0  0.9435639145538256 -0.1505653526388016 0  -0.3846472892732951 -0.7957134915897158 0  -1.564784990737333 0.4349271013813491 0  0.7652519359079073 -0.1601246299543728 0  -1.453655128169506 0.158161745779481 0  -0.3010385915422988 -0.5013963335566463 0  -0.4692729732340018 0.5174596010994869 0  -0.1924472852216656 0.5916744308422535 0  0.1639615635365866 -0.8607507298317802 0  -1.474905574047988 -0.4611135538629514 0  -0.2195090010350433 -0.8345244231762282 0  0.5508195069514229 0.1034562767332349 0  0.3194839856389509 -0.5947362145242855 0  1.584081226184878 -0.3971794375707525 0  -0.8459540174072944 -0.2752140767608544 0  1.3987360237878 0.1419761243152463 0  0.946477603483116 -0.4484120966961055 0  -1.754243167786916 0.2358145791711367 0  0.04938419350397265 0.8253566311697542 0  0.05477357711779259 0.5738992517894644 0  1.540091341945122 0.05999782033231321 0  -1.153738537240222 0.07921522540356485 0  -1.174780516126256 0.3483605243786625 0  1.527843764075554 0.4441597074604751 0  1.668400498005054 0.336058391428868 0  1.25232556930813 -0.3503613454125123 0  1.427230599561512 -0.5132629182319801 0  1.447501660428598 -0.1875897735826204 0  -0.8517936905278979 0.05146238779089354 0  -0.8926819382965043 0.3310605223394008 0  -0.6879156018052659 0.7931067301292842 0  -0.7273328762130786 -0.8116277294502083 0  -1.697630865038919 -0.3151800501011776 0  0.7838694505731785 0.3527604945012495 0  0.5833466204061174 0.8125637337321516 0  1.570377213032894 -0.09243466408123494 0  -1.296918270519098 0.6257463544255646 0  -0.4479284707770427 0.2237262176232128 0  -0.1825287813900935 0.3635738425688936 0  1.148350860811263 -0.6462155739810785 0  -0.1612700958777415 -0.1022636583102247 0  0.659730616307902 -0.3979358998070032 0  1.849664173657829 0.01076451550392871 0  0.517927290913765 0.3038817765533486 0  0.7798639459215611 0.1470281664984736 0  0.2032530367764527 0.8435472556036334 0  -0.816791972638419 0.5473877830007371 0  -1.166508909157962 -0.1696751876437472 0  0.6380375005753547 0.5790637069588176 0  0.4646679905278036 0.5242229493934719 0  -0.7742279685640843 -0.5231618432370533 0  0.4852213381098052 -0.3467944161685751 0  0.2901504274104741 0.2865272213801123 0  0.05570891321244775 0.1144445421908588 0  0.6324324223956046 -0.6494469767849528 0  0.8496787721162669 0.6509220830988016 0  -0.1290206342415388 0.1444611730762279 0  0.858619784844983 0.9012122748137351 0  1.08242957677596 0.5103041579574622 0  -1.437809363022851 0.5349410434285952 0  1.074942760932661 -0.2204276826150605 0  1.258212324164898 -0.04877041875166704 0  -0.6703246198517135 0.2893340257505753 0  0.4696547715542653 -0.8284345578949004 0  0.0891623446532685 -0.5480382276677024 0  -0.4679706657950741 -0.0622727689710941 0  0.08846027097501771 -0.07046678796189219 0  0.2588217427442115 -0.3071791305574567 0  0.1204690896080425 0.3077833236810079 0  -1.841463911844999 -0.05281457233653795 0  -1.535238712644562 -0.1445022436486218 0  -1.398828067748676 -0.3180304718079182 0  -0.606376644047279 0.4765754469768619 0  -0.8321226027927814 0.7567360272968056 0  -0.3741438240994598 -0.261806154031747 0  -0.05916256750037511 0.9978053395620057 0  -0.7066027136674438 0.07408196974050621 0  1.091659578079523 -0.5129579343818057 0  -1.332628665244513 0.07857587386912931 0  0
[...]
<PointData  Scalars="f_14"> 
<DataArray  type="Float64"  Name="f_14"  format="ascii">2.0556951878240328e-02  2.0556951878240342e-02  8.7287485139999552e-02  -1.3604645258200052e-01  -7.1819389582473414e-01  -9.8324586351941490e-01  -4.1843444196128288e-01  1.3085358446371520e-01  -1.6554504837081210e-01  -2.3305319504529745e-01  6.3079510076071355e-01  7.3073861613658375e-01  -5.2064161460264580e-01  -8.9800449449285302e-01  3.6383510796805701e-01  9.5750345933848147e-01  -1.6573562182628898e-01  -8.9572740076927293e-01  -1.5241458579210782e-01  3.3049367021841769e-01  -6.1795288533804719e-02  5.4037470667669583e-02  7.8389554781790372e-01  9.4680902832631608e-01  4.0954940135612145e-01  -3.2653791478934033e-02  -6.4863729272775686e-02  -4.8985871965894128e-16  -6.4863729272776879e-02  -3.2653791478934185e-02  4.0954940135612017e-01  9.4680902832631397e-01  7.8389554781790471e-01  5.4037470667668515e-02  -6.1795288533807904e-02  3.3049367021841697e-01  -1.5241458579210199e-01  -8.9572740076927260e-01  -1.6573562182628643e-01  9.5750345933847825e-01  3.6383510796805990e-01  -8.9800449449284925e-01  -5.2064161460264846e-01  7.3073861613658053e-01  6.3079510076071255e-01  -2.3305319504529634e-01  -1.6554504837081033e-01  1.3085358446371453e-01  -4.1843444196128332e-01  -9.8324586351941412e-01  -7.1819389582473736e-01  -1.3604645258200132e-01  8.7287485139999274e-02  -2.7519932911615830e-01  -8.6549513089384911e-01  -6.7156413251790489e-02  -4.7775535832247346e-01  -6.9318384884686635e-01  2.5585061211156684e-01  -1.0736793836024433e-01  5.6414841328550991e-01  3.2093239253994606e-02  4.1894499184287082e-01  -3.9591724651424004e-01  -3.7232941248034285e-01  1.3860850216408338e-01  -5.5133847002013014e-01  4.4767533923812985e-01  2.4568578977885028e-01  6.2059203623430204e-01  9.7845665603837362e-01  2.8383822406280890e-01  9.7458152711896073e-01  -3.3068867334470980e-01  4.8252533599342157e-01  -2.8608015769847511e-01  1.4696143594222617e-02  -6.3011224799286081e-01  4.8154380563056148e-01  -2.9695948336438033e-01  -3.0356582499381446e-01  -9.3912301372800189e-01  -1.5844020159724262e-01  2.6122555968148281e-01  2.3469251778229859e-02  4.7395363229696175e-02  -3.2749147302552198e-02  4.4558099713211241e-01  -5.3658186444532331e-02  2.4559691103349232e-01  -5.3686763050714004e-01  -6.1829656670803379e-01  5.8516960467735035e-01  -4.2407013558516012e-02  -5.9646149346208946e-02  4.5322213608217657e-02  7.2507481302957213e-02  9.5305705932247042e-01  4.2708020309134692e-01  -9.5694408975142986e-01  3.0708777000819998e-01  9.0973990044237951e-01  -7.6700968181412277e-01  -2.0755130296542185e-01  -3.8658278084551294e-02  7.4972382946719403e-03  -8.3384516728832869e-01  -1.0074915872210066e-01  6.9982619895482812e-01  -4.3432803816882536e-03  -9.8525950405674967e-01  -1.0704252592142266e-01  1.2792897673778456e-01  -1.5292377306142545e-02  -4.5895057539217765e-01  9.4899706166090025e-01  6.9090537947232800e-01  -8.6863686188119593e-01  -2.5237977786552623e-01  8.1239596662107483e-01  -3.3408152235061966e-03  1.9828335389998872e-02  5.3607543509399147e-01  -6.9936327636071616e-01  2.2497314914524763e-01  1.0725836965076835e-01  1.8048921765265508e-01  3.4478878731532925e-01  5.0363477665941614e-01  2.3933408755380425e-01  -7.7904834628937908e-02  4.9141189319824075e-01  -6.7082078858311678e-01  2.9397761058322863e-01  5.8021593340983313e-01  2.7454644173608733e-01  1.4330717577342930e-01  2.3477264430519379e-01  -4.2968600712989091e-01  -7.8293040650495005e-01  -4.5366777521958362e-01  6.1342221966951774e-03  1.9604341251637344e-01  -7.9078207143494395e-01  1.9459730183895735e-01  -9.6437911290719636e-01  9.8398365682553746e-01  -2.8617265781718099e-01  -3.0448434605339775e-01  -2.1665299083116049e-01  -7.2069392936997023e-01  4.0686976078080778e-01  2.4017280212298017e-01  2.5439738408091195e-01  8.3809123472130917e-02  -2.1294690681578124e-01  -6.5680160604273907e-01  -2.0308801955569647e-01  -1.8781568441407209e-01  -3.6327406103497045e-01  -5.3270998609567399e-01  -1.5662297052445406e-01  9.4898321566132371e-01  1.9071312318340061e-01  7.8440629260155947e-01  5.4963898371905762e-01  1.5235683398751262e-01  -4.9720106160905703e-01  -2.4989200378205079e-01  -7.5034589322037359e-01  4.0248188432147863e-01  -1.2994869800868183e-01  3.7303838141375018e-01  3.1280449546221850e-01  8.8980033278287185e-02  1.3922838302410448e-01  -3.0167693247879218e-01  -2.3174407910165623e-01  -7.2279478594418578e-01  5.1590412552599330e-01  1.6345281305335363e-01  4.4856749107625971e-01  -5.8955758428420935e-01  -4.3992666670840147e-01  1.2378523543629080e-01  7.6076164381102807e-01  -3.0442197450517977e-01  2.4744883125005820e-01  3.7379097594520055e-01  -3.7682375811603752e-01  5.8815432344048058e-01  -1.9155437919541299e-01  -3.5775729559168817e-01  6.7342282235221573e-01  -5.2811970587302096e-02  5.9662029462131494e-01  -4.8723307061073118e-01  -6.7934988121767181e-01  6.7585429490616633e-01  -8.0840288200586230e-01  3.7330986155575396e-02  -5.9220764391382630e-01  5.3076287164007341e-01  -8.7304313551822554e-01  -4.1851901044617745e-01  6.7041675151773938e-01  -2.1763341169022263e-01  -9.7798696176913935e-01  -5.2979764395281882e-02  -2.2029693795408342e-01  2.5802208123311254e-01  4.3665201108824786e-01  4.7241910954854005e-01  -4.4613598559325385e-01  -6.3126298477501908e-01  -4.9403703996895826e-01  3.7174465077654706e-01  8.3811467775384507e-02  9.5214651926614535e-01  -2.1461499415298432e-01  8.9660051413950878e-02  -5.0735376976822277e-01  -1.8478383831777684e-01  4.7675609793235202e-01  -3.5104823463865731e-01  -2.4387171863647542e-01  7.9357079878363546e-01  1.3514056013122300e-01  2.4612918763864033e-01  -6.1301852837402382e-01  3.6802337749985342e-02  5.2686422726025910e-02  -3.6319270075050103e-01  8.6059542913512588e-01  -5.4279766512611394e-01  -7.6454857291308864e-01  -5.6867661460249075e-02  -1.0955556631990816e-01  4.4698862835205078e-01  9.9881757817484405e-03  -6.8610442890484158e-01  -6.1851949184284516e-01  7.0395602062693574e-02  7.3281183874558697e-01  8.3519731523808050e-01  2.2386977067027566e-01  -5.2898373971656076e-01  7.8904882925267805e-01  -1.9718068346503326e-01  -9.3672886159373836e-01  -5.6730783819462616e-01  1.9021914294558375e-02  6.6466855172940864e-01  6.7729477292290341e-01  8.2845444677516522e-01  5.4682066223029924e-01  6.9093881275644878e-02  6.2315573632973520e-01  -3.1539628105411222e-01  -3.2087199307682546e-01  -2.6662714062795273e-01  5.4338338487550353e-01  -7.4822143523852147e-01  2.3372918638573062e-02  -2.0009992295823775e-01  -7.5900857344717521e-02  -2.1719536131943815e-01  -9.9755985588828477e-01  6.5004111200770267e-03  6.0732912465923716e-01  1.5826109728331905e-01  1.5974683170369802e-01  -7.2890979592938041e-02  1.4932901765255441e-01  -2.3931026119701940e-01  -1.5673310758882005e-02  -2.6542631946902512e-01  3.8478896883001705e-02  -4.2639026729285012e-01  -6.5018409193010684e-01  2.7886858042651613e-01  -7.0106144039596796e-01  1.8345337965093245e-01  8.4918138802197629e-01  7.3004061479601062e-02  3.0493783557630927e-01  -2.2791675587572668e-01  6.3524230903251225e-02  2.1096982199227740e-01  -2.4585972786966823e-01  -8.0347390522496820e-01  -3.2087199307682546e-01  7.0259150881753440e-02  -4.8435249000450836e-01  -3.0256508345202088e-01  5.1031671502827569e-01  8.8095749255534839e-01  -5.4847721556838980e-01  2.0755669537865021e-01  2.7710767961858851e-01  1.2183562674897369e-01  1.5974683170369422e-01  3.7905643806879274e-01  -9.5763255655681878e-01  -5.0621413929580539e-01  4.6931464623293001e-01  -6.1100289282476017e-01  -8.4677611104329609e-01  -9.3472250381743793e-01  5.2367082611749483e-01  -3.6319270075050647e-01  8.9684291626590074e-01  8.9684291626589763e-01  -1.5948168828583384e-01  -1.3844922233275270e-01  1.6698171125444969e-01  4.0891056992666713e-01  -9.5763255655682034e-01  2.2386977067027825e-01  4.0424848649712258e-01  2.9625467145534483e-02  5.2367082611749127e-01  8.4773042065888204e-01  8.6209234488943043e-01  1.4633205790610881e-01  -1.4559318323378717e-01  -7.9013476762645274e-01  2.4376500388660616e-01  -5.4669388468997460e-01  1.2628651388735937e-01  5.5330306039365083e-02  -3.9236211184807457e-01  2.6908025248762091e-01  -8.5056995244110500e-01  -7.7478872192419168e-01  9.6503208605627555e-01  -3.9663858247426226e-01  -7.2382783024740371e-01  -7.2382783024740371e-01  1.6677685555935570e-01  -1.6767611893069642e-01  4.7957775508678302e-01  5.8529802719311919e-01  -2.4135554238249093e-01  -2.0798010423337052e-01  8.5139936186954712e-01  3.4979746563827865e-02  1.5826109728331905e-01  9.5702225405070962e-01  -5.6220997959503319e-02  8.9118159910882633e-01  8.9118159910882633e-01  -7.5192508133307678e-01  1.4206469328652838e-01  -4.0969140633174295e-01  6.6589068521369432e-01  7.3253367285229354e-01  5.2302812735673943e-01  1.5723082782768361e-01  2.4490412809738894e-02  7.2213630963016751e-01  2.1329198244563799e-01  9.0798162043361019e-01  -6.3126298477502252e-01  -3.3734319798015819e-02  1.3972034887832688e-01  -7.0613540485691531e-02  1.5723082782768097e-01  -4.0154176518201695e-01  -9.5740278763990427e-01  3.5376237902047608e-01  -2.7890727272404842e-01  6.5335320349259318e-02  5.6349540282376220e-01  -8.1141848418037366e-01  5.3546271414814661e-01  -3.6702593408992384e-01  -2.9554416124684535e-01  -1.6077063275782172e-01  2.1119228642909624e-01  5.5368962855952641e-01  3.3603507515780756e-01  -6.6863258446434681e-01  -5.1309578061565893e-02  3.1525887736194985e-01  -1.2467155553806911e-03  4.4139806820328926e-02  -6.2334530978360381e-01  4.0891056992666686e-01  -5.4231956905095380e-01  6.5665085405070189e-01  -3.7669254330200191e-01  1.5915315323213960e-01  7.3847196045884222e-01  5.4140228996705941e-01  4.2646129962318285e-01  9.4446399489751739e-02  -3.7951902498605355e-01  -2.0728174219984860e-01  -9.3973589503325983e-01  3.8776985019821864e-01  7.0536826522522511e-01  3.5590878765858275e-01  1.8231038225442822e-03  -7.0155920325818899e-01  2.4624997905833956e-01  -6.9406679666268291e-03  -2.7825422435701158e-01  4.7335990049098642e-01  -1.5313702046409516e-01  9.8003712150427769e-01  1.5659187638645822e-01  -1.9491621392385983e-01  -2.2036124130562787e-02  5.3275473098298276e-01  6.5326928404373108e-01  -5.2674165571360121e-01  -9.4816913666164432e-02  -6.6405028877028649e-01  -5.1929699799229873e-02  9.0256816416277130e-01  1.7753505072470868e-01  9.3980219704326007e-01  9.7514145651631634e-01  -3.0492726755652394e-01  -2.5833959984570726e-01  -2.5074176574740120e-01  -4.0000678019422792e-01  1.4531354628404627e-01  6.4148578758747993e-02  3.3933383869706707e-01  -4.3340795722399669e-02  -2.3391466030092983e-02  7.5104338000888149e-01  -2.9467406353020037e-01  -2.7608448867113605e-01  -2.6337054487913281e-01  1.0235082088726057e-01  6.6455499290279818e-01  6.7711940431090067e-01  5.2072541257326499e-01  8.0744830354461908e-02  -6.3933947864432739e-01  -3.5489346062977850e-01  6.8827642894578844e-01  -2.6922922451549079e-03  -6.9486142478947654e-01  -6.9392730077331521e-01  -4.6018096076502112e-02  -5.1120934273757790e-01  5.2390803436384714e-01  -2.5768318574507709e-01  3.2850707261384515e-01  -2.5325132898389415e-02  -8.5837424888071967e-01  -1.7998760044354320e-01  1.5678712027394610e-03  8.9417364387821330e-01  3.5148267664760652e-01  7.1185093528542653e-01  8.8055708948360145e-01  -1.2606312946895568e-01  -4.0371059684541979e-02  3.4123470817627216e-01  -8.2060392945264160e-01  -4.6118461592750076e-01  -6.2020109310190141e-01  -4.6658823071310258e-02  -6.3114510856474015e-01  6.9093881275644878e-02  4.4884849389970194e-01  5.5768112225046984e-01  -4.9325974706378661e-01  -1.0368771414940414e-03  -4.2604623252302865e-01  5.0199650109176264e-01  7.9591104995819473e-01  -8.4719119405228482e-01  -9.7080418636530375e-01  -5.5566428624855591e-01  -9.4529792061433127e-01  9.9638910966109509e-02  -6.8937108964516203e-01  -7.0397062644399389e-01  -1.2240539330367207e-01  4.9132568703958845e-01  -7.4795991404201803e-02  6.1871051036538671e-01  1.9496759147793818e-01  -1.9533018448208869e-01  -2.5856936217469446e-02  -7.0807863241981328e-01  -2.0200388432310679e-01  1.1149586901263236e-01  -5.6067291784316919e-01  -3.0919981882630121e-01  -2.3628943879560133e-01  -1.0439503240530697e-02  -1.3860911270700044e-01  -1.3860911270699969e-01  -3.7334957312985878e-01  -1.1855322458903067e-01  -8.4576055961269725e-01  -5.0679899595819933e-01  -1.0413251278761693e-02  1.5337944680958979e-01  -6.9705297307317815e-01  8.2803204444708389e-01  -9.0236476340221292e-03  -3.2251665707543797e-01  1.2779663739089409e-01  -6.9891941556281825e-02  -4.5735321606115414e-01  </DataArray> 
</PointData> 
</Piece>
</UnstructuredGrid>
</VTKFile>