<?xml version="1.0"?>
<VTKFile type="UnstructuredGrid"  version="0.1"  >
<UnstructuredGrid>
<Piece  NumberOfPoints="513" NumberOfCells="940">
<Points>
<DataArray  type="Float64"  NumberOfComponents="3"  format="ascii">-1.996487463528643 0.05924062789371414 0  -1.996487463528643 -0.05924062789371389 0  -1.968461155895194 -0.1768902751225729 0  -1.912801968553045 -0.2920567706369757 0  -1.830291234486037 -0.403123429287972 0  -1.722087223534711 -0.5085311186492202 0  -1.589708882826707 -0.6068001458185934 0  -1.435014514088662 -0.6965510290629969 0  -1.260175687163422 -0.7765238627180426 0  -1.067646755929582 -0.845596003501826 0  -0.8601304045530408 -0.9027978299657435 0  -0.6405397077256761 -0.9473263538541913 0  -0.411957237482197 -0.9785564922995039 0  -0.1775917906458709 -0.9960498426152169 0  0.05926665564511884 -0.9995608365087943 0  0.2952931280049608 -0.9890401873221641 0  0.527174332138136 -0.9646355819083585 0  0.751655164228476 -0.9266896074318335 0  0.9655844054614885 -0.8757349421956372 0  1.165958958228944 -0.8124868780056815 0  1.34996600303642 -0.7378332790417279 0  1.51502248432324 -0.6528221181905214 0  1.658811370900403 -0.5586467658036526 0  1.779314181989494 -0.4566292373937137 0  1.874839322268242 -0.3482016354343991 0  1.944045828160821 -0.2348860457809837 0  1.985962192027034 -0.1182731709213655 0  2 0 0  1.985962192027034 0.1182731709213658 0  1.944045828160821 0.2348860457809837 0  1.874839322268242 0.3482016354343987 0  1.779314181989495 0.4566292373937131 0  1.658811370900404 0.5586467658036525 0  1.51502248432324 0.6528221181905216 0  1.349966003036421 0.7378332790417272 0  1.165958958228944 0.8124868780056813 0  0.9655844054614897 0.8757349421956369 0  0.7516551642284764 0.9266896074318334 0  0.5271743321381356 0.9646355819083586 0  0.2952931280049625 0.9890401873221639 0  0.05926665564511933 0.9995608365087943 0  -0.1775917906458696 0.9960498426152169 0  -0.4119572374821965 0.978556492299504 0  -0.6405397077256753 0.9473263538541914 0  -0.8601304045530411 0.9027978299657434 0  -1.067646755929581 0.8455960035018261 0  -1.260175687163422 0.7765238627180424 0  -1.435014514088662 0.6965510290629972 0  -1.589708882826707 0.6068001458185932 0  -1.722087223534711 0.5085311186492207 0  -1.830291234486036 0.4031234292879726 0  -1.912801968553045 0.2920567706369759 0  -1.968461155895194 0.1768902751225732 0  -0.04437192562528219 -1.110223024625157e-16 0  0.8335019697246084 1.110223024625157e-16 0  -1.01069632546953 -2.220446049250313e-16 0  0.394565022049663 0.3915682798456984 0  0.3522735769994738 -0.4166259468104853 0  -0.4501418133162245 -0.4058946391688135 0  -0.5275341255474064 0.3571904065178694 0  1.402811141311738 -0.02863577831590736 0  -1.505110583116499 -0.004348640878122007 0  -0.07007229586901711 0.4706114679393218 0  1.135878682779004 0.3380165044918498 0  1.092833098962949 -0.3681472894068038 0  -1.024960806723425 0.4237550869473216 0  -0.8965663034441403 -0.4324023868401529 0  0.4257577673292915 -0.01526761750505657 0  -0.04880146964036752 -0.4013417242647433 0  -0.609996857479466 -0.03664008677695513 0  0.7764343603392557 0.5200063928411779 0  -1.25532059132525 -0.2958302724023456 0  0.7316260989427333 -0.5309820306136809 0  0.1635771678461424 -0.6868854897921447 0  -0.246451570643741 -0.6698380193821327 0  -1.259714539540687 0.2037351564202541 0  1.518276280417643 0.2704695700837146 0  -0.6908677295989228 0.6318012664177828 0  -0.3561084931681804 0.6450306677727666 0  0.1638806010293832 0.6936928894655447 0  1.412801071332795 -0.3490192759252495 0  1.699553339233205 0.02430973105632423 0  -0.2518873568825088 0.2246749498938432 0  -0.7897840887715968 0.2065534385918957 0  0.6076160326420545 -0.255970046464524 0  0.5149341374549093 0.6655912698028861 0  0.656818237272671 0.2437446228256755 0  0.1965191203790426 0.1717700434746645 0  0.480511411790457 -0.6776131883692138 0  0.1595877572559508 -0.202946376407368 0  -0.6952511143331472 -0.6534177590430962 0  -0.3199308255648766 -0.1302956997878116 0  1.114997602589489 -0.07712117164856008 0  -1.588189954513241 0.2628406362783141 0  -1.540849884298197 -0.2877476669998906 0  -0.1015892618914199 0.7378821549966836 0  0.984934541688795 -0.6108418792182178 0  -1.289474589725681 0.4707351740069162 0  -1.08665265035861 -0.5957124721702188 0  -1.258821777610901 -0.04605902924274002 0  0.8502301023130975 -0.3120347200353727 0  -1.743975485730547 0.06789003627623295 0  1.354637669048914 0.4602671346642423 0  -0.6812184677598236 -0.2867017660762444 0  0.9065810204143958 0.2388818674221514 0  0.9982544135989968 0.6302112026205189 0  0.1665915452628685 0.4566320343140797 0  1.643609433971312 -0.2295110592353919 0  1.228897703319037 0.1252437364818905 0  -0.02216285563254133 0.2450191000369092 0  1.262720784173248 -0.5242495448299814 0  -0.05623132843131799 -0.8000582762946564 0  -0.4697525707663631 -0.6315961943851917 0  -1.027007246476508 -0.235568331512759 0  -0.4148002828574778 0.07189646706722697 0  -1.298130715996915 -0.5172832284499946 0  -0.8189404187382681 -0.1123029543339003 0  -0.7370961191143197 0.4184260751230292 0  -0.9317026476750988 0.6462719977687397 0  -0.3227581349090246 0.4302014854234543 0  -1.002271856080982 0.2124012148235126 0  -0.5285970907866302 0.7676945336776307 0  -1.728342346144232 -0.1590082969159225 0  0.6311830346458001 -0.04911339652109786 0  0.4001817229625221 0.1873851741126957 0  0.4062022643064033 -0.2190934536377693 0  0.7167608759140704 0.7204669943531312 0  1.282464896642745 -0.1927358117944032 0  0.5922458172034981 0.435729904674534 0  0.9578057274831191 0.4332843316584376 0  -0.0411565609533259 -0.2007307936769273 0  -0.2502868243013957 -0.3317596556351642 0  0.1519428485689092 -0.4035573069951841 0  -0.05935116928589174 -0.6005726381785583 0  -1.136016514976983 0.61032967934319 0  -0.5924559654036137 0.1666162072424275 0  0.8095761849647186 -0.7253972049714559 0  0.5378371696683055 -0.4874469103713062 0  -0.8917891692794997 -0.6302442380869808 0  1.200891035781411 0.5965018388195157 0  -0.2780107597553512 0.8262161750274 0  -0.5033004430771811 -0.2022023239551433 0  0.3481310803116034 0.7886211939504215 0  0.3242103985853413 0.5769804361418088 0  1.038512265003667 0.09916473918132254 0  -0.2293132009869575 0.03735429850930291 0  0.2303673457241288 -0.0207441291886811 0  -1.394719062535953 -0.1728741398095207 0  1.760608441715313 0.2006446945278364 0  0.6152999340820416 -0.8030041543524126 0  -0.6306547630189209 -0.472263103015198 0  -1.079370300848389 -0.4119073731104717 0  -1.40792213345312 0.3223743604279201 0  0.3253762999537021 -0.7961399542484453 0  -0.5690065631474784 -0.7819637891814336 0  1.308146044456154 0.2866083598194664 0  1.79565695807793 -0.1299478014456687 0  0.9435639145538256 -0.1505653526388016 0  -0.3846472892732951 -0.7957134915897158 0  -1.564784990737333 0.4349271013813491 0  0.7652519359079073 -0.1601246299543728 0  -1.453655128169506 0.158161745779481 0  -0.3010385915422988 -0.5013963335566463 0  -0.4692729732340018 0.5174596010994869 0  -0.1924472852216656 0.5916744308422535 0  0.1639615635365866 -0.8607507298317802 0  -1.474905574047988 -0.4611135538629514 0  -0.2195090010350433 -0.8345244231762282 0  0.5508195069514229 0.1034562767332349 0  0.3194839856389509 -0.5947362145242855 0  1.584081226184878 -0.3971794375707525 0  -0.8459540174072944 -0.2752140767608544 0  1.3987360237878 0.1419761243152463 0  0.946477603483116 -0.4484120966961055 0  -1.754243167786916 0.2358145791711367 0  0.04938419350397265 0.8253566311697542 0  0.05477357711779259 0.5738992517894644 0  1.540091341945122 0.05999782033231321 0  -1.153738537240222 0.07921522540356485 0  -1.174780516126256 0.3483605243786625 0  1.527843764075554 0.4441597074604751 0  1.668400498005054 0.336058391428868 0  1.25232556930813 -0.3503613454125123 0  1.427230599561512 -0.5132629182319801 0  1.447501660428598 -0.1875897735826204 0  -0.8517936905278979 0.05146238779089354 0  -0.8926819382965043 0.3310605223394008 0  -0.6879156018052659 0.7931067301292842 0  -0.7273328762130786 -0.8116277294502083 0  -1.697630865038919 -0.3151800501011776 0  0.7838694505731785 0.3527604945012495 0  0.5833466204061174 0.8125637337321516 0  1.570377213032894 -0.09243466408123494 0  -1.296918270519098 0.6257463544255646 0  -0.4479284707770427 0.2237262176232128 0  -0.1825287813900935 0.3635738425688936 0  1.148350860811263 -0.6462155739810785 0  -0.1612700958777415 -0.1022636583102247 0  0.659730616307902 -0.3979358998070032 0  1.849664173657829 0.01076451550392871 0  0.517927290913765 0.3038817765533486 0  0.7798639459215611 0.1470281664984736 0  0.2032530367764527 0.8435472556036334 0  -0.816791972638419 0.5473877830007371 0  -1.166508909157962 -0.1696751876437472 0  0.6380375005753547 0.5790637069588176 0  0.4646679905278036 0.5242229493934719 0  -0.7742279685640843 -0.5231618432370533 0  0.4852213381098052 -0.3467944161685751 0  0.2901504274104741 0.2865272213801123 0  0.05570891321244775 0.1144445421908588 0  0.6324324223956046 -0.6494469767849528 0  0.8496787721162669 0.6509220830988016 0  -0.1290206342415388 0.1444611730762279 0  0.858619784844983 0.9012122748137351 0  1.08242957677596 0.5103041579574622 0  -1.437809363022851 0.5349410434285952 0  1.074942760932661 -0.2204276826150605 0  1.258212324164898 -0.04877041875166704 0  -0.6703246198517135 0.2893340257505753 0  0.4696547715542653 -0.8284345578949004 0  0.0891623446532685 -0.5480382276677024 0  -0.4679706657950741 -0.0622727689710941 0  0.08846027097501771 -0.07046678796189219 0  0.2588217427442115 -0.3071791305574567 0  0.1204690896080425 0.3077833236810079 0  -1.841463911844999 -0.05281457233653795 0  -1.535238712644562 -0.1445022436486218 0  -1.398828067748676 -0.3180304718079182 0  -0.606376644047279 0.4765754469768619 0  -0.8321226027927814 0.7567360272968056 0  -0.3741438240994598 -0.261806154031747 0  -0.05916256750037511 0.9978053395620057 0  -0.7066027136674438 0.07408196974050621 0  1.091659578079523 -0.5129579343818057 0  -1.332628665244513 0.07857587386912931 0  0
[...]
<PointData  Scalars="f_14"> 
<DataArray  type="Float64"  Name="f_14"  format="ascii">2.2255187843350427e-01  2.2459221926344161e-01  1.8314862162713241e-01  8.9021188774339205e-02  3.3222433961349329e-03  -3.3990798926773841e-02  3.8434234307662976e-02  1.4836936394644779e-01  1.8500160712187882e-01  9.9707258597219586e-02  1.0684598234135966e-02  -2.3561887737097977e-02  -6.2136460351378334e-02  -6.2130343006210204e-02  2.7147164069523964e-02  7.5256838250974512e-02  4.2828165439276561e-02  7.7863683582377555e-03  -4.1331394649631294e-02  -1.4463259305305814e-01  -1.8507917828715567e-01  -1.0535004073440407e-01  4.5873920310548350e-05  1.3025172577974371e-02  -5.1477725422761640e-02  -1.4549762438907765e-01  -2.0104707836005353e-01  -2.3698793292712761e-01  -2.1540072702975710e-01  -1.4112850980877020e-01  -4.9978810057614023e-02  1.8007593494984535e-02  -6.6887721045062742e-03  -1.0847844316324647e-01  -1.9424792074827132e-01  -1.5357949667569409e-01  -5.3937240766710248e-02  1.6073669899961066e-03  3.8259265332016568e-02  7.2486290238563567e-02  2.6290045886236298e-02  -6.1626186556295204e-02  -6.7283277689432125e-02  -2.3099863975224552e-02  1.4857992085451664e-02  9.9003619003393648e-02  1.7680328384944041e-01  1.5965891235855723e-01  4.7938384319510238e-02  -2.2112359042253435e-02  8.6501151391015080e-03  9.7742656169796133e-02  1.8417228718380385e-01  -2.4368942587064027e-02  -6.2167240545668218e-02  -3.7570540401309178e-03  -3.1878179408220048e-02  -4.4449889239936147e-02  1.6882334139386855e-02  -9.7977952354056166e-03  3.9287555620963331e-02  1.4369395009888455e-02  2.7684866907157404e-02  -4.2778423623935469e-02  -3.9961686995882234e-02  2.3553264106169973e-02  -3.6919625161048658e-02  2.8748333907584547e-02  1.7131446608940996e-02  4.5345299454449872e-02  6.9441865450980023e-02  2.6735251968912972e-02  7.5224580268284560e-02  -2.0558312700490779e-02  3.2721937029505432e-02  -1.4070868596629123e-02  -2.0205195919749050e-02  -6.0281043327342611e-02  2.6595465139506988e-02  -2.1160019032173898e-02  -4.4912151225854825e-02  -1.2972026690252783e-01  -1.7259210943957458e-02  1.8914066184318207e-02  4.9417807178731479e-03  1.8580067345149290e-02  -3.8632976085685557e-03  2.8623471964485434e-02  1.4195880018197458e-02  1.5816478261369310e-02  -5.5588912162510939e-02  -4.7732379461499261e-02  4.3474332633769937e-02  2.5347086267586173e-02  1.2871357261413164e-02  2.4084305596682020e-03  -2.7814843649200078e-02  1.2282523951680802e-01  9.4267832794107345e-02  -6.6182215261999883e-02  2.1014341385400606e-02  1.4912433245541507e-01  -1.1241115381930042e-01  -1.1462589659020039e-02  -3.5522565476154575e-03  -5.1435053859977223e-02  -6.0097412669645835e-02  -4.0473144743310908e-02  4.8487319150648037e-02  -7.1718953976789611e-03  -1.4463500180215411e-01  -5.2108067286978270e-03  -7.5257547428183094e-05  1.4024764015222791e-03  -3.6327730173353390e-02  1.3369870586559957e-01  5.3375323802909588e-02  -6.3766465592205973e-02  9.0250343575339256e-03  5.5080914965271510e-02  2.6345263030362449e-03  -3.1161135559806839e-02  1.0246392012317089e-01  -4.8406977425279732e-02  1.7366763612454119e-02  8.6364562237056693e-03  3.7397892811068756e-02  2.2280765008080416e-02  3.6103549867557497e-02  3.3794943096425011e-03  -1.0506869036092034e-02  3.4678031924554292e-02  -4.6120294290363024e-02  2.1745530284132765e-02  1.2596685941790564e-01  1.7775931094939783e-02  2.7367814768917871e-02  2.2543863071151179e-02  -1.5865753047713812e-02  -1.5701074418344110e-01  -3.9444017179115033e-02  7.1590093002603513e-05  2.3545375234901314e-02  -5.4043489525478106e-02  1.5783707763841828e-02  -7.2797654152768870e-02  6.5196975825642003e-02  -1.5945538754215827e-02  -9.3907191889531616e-02  3.0474273841525314e-02  -5.3725951494472714e-02  4.4894063637553307e-02  3.5595146067929663e-02  2.8077681840527821e-02  -3.2261701608396740e-02  -2.8146589249560032e-02  -1.4920864876360612e-01  -1.2928318736081088e-02  -2.6623604201807125e-02  1.6744357721584259e-02  -3.5317741359467296e-02  -2.2916986187347960e-03  6.8864206436938719e-02  1.0724772839343871e-02  5.2950918958472350e-02  4.1418869449454603e-02  5.5887621265943196e-02  -3.7813379054420337e-02  -1.7743413550014551e-02  -4.5682312406035180e-02  -8.1898516606661864e-03  -7.0267998841761232e-03  2.3929280667206555e-02  1.3642136185913267e-02  7.4058522922742412e-02  1.1435414867243813e-02  -2.4336470476303419e-02  -3.2518843080814548e-02  -5.1100834023530425e-02  5.3732745372254982e-02  -3.4238490882071752e-02  -8.1875939001268688e-03  -5.8999442645438840e-02  -1.0230826503764465e-01  2.8667561071827781e-03  5.8164356813317476e-02  -2.0182393216068746e-02  -2.7081536706498460e-02  -2.4250213090818082e-02  1.2532909101926504e-02  4.0886619349883427e-02  2.7501375515857813e-02  -4.4761011230366292e-02  1.7604097483272899e-01  -7.5351294407657128e-03  3.8541635320683068e-02  -1.3771121921553728e-01  -5.4931520423152934e-02  5.2479144000848167e-02  -2.0520093592163108e-01  2.1935864727296106e-03  -4.1890487725576533e-02  3.8605578755074546e-02  -5.8172903201802191e-02  -2.9564657643723076e-02  5.7270271733389042e-02  -1.1871526836025600e-02  -7.2902903619801632e-02  -1.2436253813987029e-03  -1.6060419803864762e-02  1.2420148817610641e-02  5.1554343096453861e-02  2.7077992274806756e-02  -3.8391777348027456e-02  -2.0161779390450260e-02  -8.1688596741237213e-02  1.0748127416470704e-01  4.4348172440850427e-03  7.0263634455138391e-02  -1.5425447207829616e-02  3.9180560932420797e-02  -3.6632832118072958e-02  -1.4088408859070495e-02  2.9479310587199471e-02  -2.3925097240310087e-02  -2.2013655288857487e-02  1.9538938845065704e-01  2.4074892387055680e-02  3.1392695407021873e-02  -4.6845065005074071e-02  -7.7990854734443314e-03  2.4725524098695227e-03  -2.1955250345255327e-02  6.1264129939398997e-02  -7.9043179620702286e-02  -5.1145433133108667e-02  -4.0643941570923815e-03  -9.1484879129875660e-03  6.2482466464854218e-02  6.3367705419712692e-02  -1.7039843256157869e-01  -8.4124514126288769e-04  5.1382064532568949e-05  9.2673438393053351e-02  6.0148074989744768e-02  -8.7576177170955186e-02  -3.5953863754596735e-02  5.5064537650625106e-02  -1.4082404798882736e-02  -1.1466740162128461e-01  -6.6304680159908133e-03  -2.5439282709669497e-02  4.4578734411987730e-02  4.7199383270019678e-02  1.0228227367097267e-01  -8.8208960265765170e-03  1.8553071255442588e-01  1.7468820183073136e-01  -5.5372869754625367e-02  1.3765752777659923e-01  -1.9550037979799994e-02  4.1900961892475080e-02  -5.2932137638162430e-02  -1.2339131356543178e-03  -9.4716733252182030e-03  -2.3821146180066494e-02  -3.0858391941167164e-02  -6.9081973366288546e-02  -3.7324818405630407e-02  1.9452139123966750e-01  4.8014521704391668e-02  -3.9049762678828995e-02  -4.9573015047443582e-03  3.9261297190926289e-02  -2.0424771406767472e-02  2.2618873815872746e-02  -4.9107097714335871e-02  -1.8488267099925848e-02  -3.0237865742481801e-02  -4.4893777889048830e-02  1.7450737815025590e-02  -4.6964521829409148e-02  1.5456620926677309e-02  6.0724253800285781e-02  5.4476485351281825e-04  1.9132547271463730e-02  -1.3567271449394944e-01  6.1644969236443548e-03  1.3667778600921309e-02  -2.1381597302766609e-02  -5.9281429181116757e-02  1.5091957764500732e-01  9.2445851778085245e-02  -2.9303701058649906e-02  -1.0716767525391512e-01  1.7438631078961892e-02  1.1069763833114853e-01  -3.3347902665358170e-02  1.7577814229040950e-02  1.5501049348700864e-02  4.5852139079789793e-02  -4.4014321862597447e-02  1.4372588830081656e-01  -7.3060375542412417e-02  -1.7423609972022158e-01  1.2726155677021542e-01  -1.6349235832882691e-01  -6.1229803735362798e-02  -6.6873613384724861e-02  6.5243259638440299e-02  -2.2516378602058358e-02  6.4836330154339483e-02  6.3075286956117624e-02  -1.0468903944727721e-02  -5.6188722071831695e-03  1.4374902384063661e-02  -5.2716374428184470e-02  -7.7211210005473874e-02  -1.0555017045184950e-01  4.4567503899844277e-02  -7.8544488096168000e-02  6.0016781927956155e-02  6.0247140334231404e-02  6.3956541821190066e-02  6.0804054917119581e-03  -4.7006940253538243e-02  -9.8853964293766319e-02  1.1471820476003728e-02  -3.6407814326419617e-02  1.0260468129496294e-02  4.3822415453672950e-03  6.0025951025502811e-03  1.4619460639106890e-01  -9.4337286351871316e-02  -1.0886758824897665e-01  6.3877908746247214e-02  -2.7401281370301601e-02  1.8777388804740794e-02  2.4827751424163266e-02  4.2880522214457588e-02  -1.1119536918990007e-02  3.3461092044325701e-02  3.8744874949359576e-02  -3.8721308306388452e-02  -2.0966678713321162e-02  8.6933498601337755e-02  -4.6600446941874891e-03  4.8781073121244897e-02  7.0916130420655560e-02  -9.2525112106733240e-02  -6.6484258474700589e-03  -7.2307211951976574e-03  -5.6171183651399184e-02  1.0149131819219977e-02  -3.4639611853503137e-02  8.3373784809525051e-02  4.3807029540188017e-03  3.8712549707301938e-02  -1.8063503512523604e-01  3.8748706712159957e-02  4.8808761286695687e-02  1.7994857381622709e-02  6.1252319441654213e-02  -6.5534425188884422e-03  -7.9941156003480278e-03  1.6409082745471225e-02  -4.0285635044088212e-02  -1.9001611947050212e-01  -2.8424380552372494e-02  -7.1695435994277662e-02  2.2073166260451874e-02  4.7165313427836503e-02  -2.0664975203597167e-03  8.4137479795530393e-02  -5.3563983499031756e-02  3.8149781594196248e-02  -2.3929479439425652e-02  -1.4524070346436007e-02  -4.0180547582929813e-02  1.5114768100658756e-02  3.9680195736574032e-02  -3.0146456644242887e-02  -5.5319346623075381e-02  -1.9757821154363094e-02  2.1042026296261614e-02  -1.3205372817563956e-02  3.0632869087095452e-03  -4.5792481326505444e-02  -4.9885122481277307e-02  -4.5618201147340928e-02  6.2009828636562875e-02  2.6547608954648198e-02  3.7230763621308678e-02  6.2096548338165400e-02  3.7229535317433490e-02  -2.5920506827311444e-02  -9.9188804967553744e-03  -2.6162958898352504e-02  -1.4724638226263808e-02  -6.5107455275629306e-02  1.7618720343312824e-01  5.5940184968828924e-02  -3.7577529729672932e-02  8.8462470075638725e-04  -1.6910616483993887e-01  1.3540592481744596e-01  4.7295304261764934e-04  -1.6283324986747272e-02  3.2356972209528760e-02  -8.4892900768482500e-03  1.9933986753608690e-02  4.4799589712187383e-03  -1.0033474915032412e-02  -8.9269120265017578e-03  3.7931634760189820e-02  4.6315092780801287e-02  1.7146570414715900e-02  -6.9033848019194174e-03  -6.4540512189577570e-02  -2.7731112181388316e-03  6.7436265957946329e-02  1.4906612855592253e-02  1.4714934556743087e-01  1.5289343182758108e-01  -4.2626758756499961e-02  -1.5665553239721849e-02  -7.3194187859300930e-03  -2.1873017393624877e-02  1.4401019372275031e-02  4.3915740437710463e-03  2.1706205769410333e-02  -4.3711238894587846e-03  -3.1990796325662811e-03  4.5289163759230575e-02  -2.6632858459380168e-02  -1.8246984188186752e-02  -1.7541419221280285e-02  3.5335948680602670e-03  6.1702303208480955e-02  4.8152517690729632e-02  3.7315191739324016e-02  7.6745447804548710e-03  -5.6374319281176755e-02  -1.9275016107539955e-02  5.8274506725620560e-02  9.9291660857671778e-03  -4.2932976730243044e-02  -5.5079987693052189e-02  3.8197754998784285e-02  -3.8972894059509995e-02  9.2604342646158092e-02  -2.1225904918119449e-02  2.4486340516078543e-02  -1.2906692005019234e-03  -1.6036167229471321e-01  -3.4082832874995229e-02  1.8499229587154858e-02  6.3318647214665374e-02  2.4235293374825287e-02  4.6321462162629876e-02  5.7809910905706134e-02  -2.7936027450422708e-02  -4.7100252756699219e-02  2.1845577378209188e-02  -2.0943964703944384e-02  -1.9304847416660659e-01  -6.7690277067210231e-02  2.1747511921702371e-02  -4.4341516759850888e-02  1.9062255412099979e-01  3.4300945622632542e-02  4.0191911104571272e-02  -1.8795093430793872e-02  1.4611478397094174e-02  -2.4709196438988418e-02  2.3229586840907834e-01  5.2965716596495488e-02  -6.2587693298293168e-02  -1.5463177292481636e-01  -2.0763136141419930e-01  -7.2189939199942418e-02  4.2564327714485942e-02  -5.5689175681533198e-02  -5.6038366514866808e-02  -1.5707823437592659e-02  -9.5465161509645166e-03  -5.2555026733925401e-03  4.4290053859896608e-02  8.9651726385351089e-03  -1.5646601477736874e-02  -1.0270636977932768e-01  -4.8074409245089426e-02  -1.1993872112671639e-02  9.0208871188506689e-03  -4.0353275974465558e-02  -1.7032249325639764e-02  -1.1245852041671708e-02  9.5231382486205378e-03  -1.5073680506328288e-01  -1.6695143905028118e-01  2.3788171629229683e-02  1.8401843320941608e-02  -6.4576223838450950e-02  -1.1763028743141594e-01  -2.4650840756872641e-02  6.9864746251221809e-03  -1.0704166734617779e-01  6.3854860728483773e-02  3.2259310560461420e-02  3.5015941370936790e-02  1.4798369919932209e-02  4.1414722152917647e-03  2.8866874707520439e-02  </DataArray> 
</PointData> 
</Piece>
</UnstructuredGrid>
</VTKFile>