<?xml version="1.0"?>
<VTKFile type="UnstructuredGrid"  version="0.1"  >
<UnstructuredGrid>
<Piece  NumberOfPoints="430" NumberOfCells="1540">
<Points>
<DataArray  type="Float64"  NumberOfComponents="3"  format="ascii">4.176380728761742 0.6099427928004526 -0.5  4.081667937918579 0.7849151973870561 -0.2568480543248134  4.285714285714286 1 -0.5  4.047619047619047 1 -0.5  5 0.6697896599333613 -0.1697896599333612  5 1 0  4.78649100832366 0.7837954250385977 -0.2837954250385976  4.760638420147239 0.7241846707912725 4.314465244218497e-17  3.214285714285714 0 0.163196243197279  3.35440267389433 0.2019371762311602 0.2645486017193318  3.095238095238095 0 0.5  3.333333333333334 0 0.5  2.023809523809524 0.3368037568027211 0.5  1.890262089608956 0.2382434229602212 0.2673268903062789  2.119406679476807 0.3213540384245893 0.1812712006091573  2.142857142857143 0 0.5  1.785714285714286 0.2801144143990931 0.5  1.666666666666667 0 0.5  1.547619047619048 0.3368037568027211 0.5  1.664442924035054 0.3235553172444067 0.1748726618958421  2.261904761904762 0 -0.2198855856009069  2.0335235859046 0 -0.1099427928004534  2.16810737838662 0.2336745329502865 -0.2663254670497135  2.142857142857143 0 -0.5  1.385965704013174 0.2172410793197283 -0.01943847910824908  1.547619047619048 0 0.219885585600907  1.547619047619047 0 0  1.414722057085559 0.2381322644917684 0.2497082746397475  0.4023296765194843 0.2335971280137545 -0.2664028719862455  0.2019266285887048 0.2048991081415597 -0.1379192907508101  0.3828410002416139 0.4316325714677159 -5.551115123125783e-17  0.2472367472193139 0.4480940772848058 -0.2508739893770007  1.837303783550488 0.2096196964713794 0.008895839032510788  1.6456521845207 0.3297057375345318 -0.1702942624654682  1.904761904761905 0.4934705406834627 -0.00652945931653777  1.893337388007743 0.2385544205767288 -0.2488511785518457  0 0.4999999999999999 -5.551115123125783e-17  0.2616838535209761 0.7241846707912725 0  4.338919357917069 0.675167907450686 0.1751679074506859  4.523809523809524 1 0.5  4.404761904761905 1 0.219885585600907  4.285714285714286 1 0.5  0.8333333333333333 1 0.1631962431972789  0.7075369830471872 0.6631962431972789 0.1631962431972789  0.7142857142857142 1 0.5  0.5952380952380951 1 0.219885585600907  0 0.6697896599333611 -0.1697896599333611  0.1986350433866921 0.7665984067379616 -0.2879726978815613  0 0.5 -0.5  5 0.5000000000000001 -2.775557561562891e-17  5 0.3302103400666389 -0.1697896599333612  4.760638420147239 0.5000000000000001 -0.2241846707912724  1.167218353235724 0.6730060744177933 0.1730060744177933  1.001785584396648 0.6004573724174567 -0.1114228342931358  0.9608854430151597 0.3464574145114289 0.153542585488571  0.9334073722419112 0.7707279284619319 0.2515194920841554  1.535474321422988 0.1989724471473915 -0.3010275528526085  1.309523809523809 0.1886937228702916 -0.2868919480616083  1.309523809523809 0.3368037568027209 -0.5  1.428571428571428 0 -0.5  2.142857142857143 1 -0.5  2.296928329414504 0.7913041275486837 -0.2850619129763168  2.261904761904762 0.719885585600907 -0.5  2.380952380952381 1 -0.5  1.904761904761905 0 0.5  5 1 -0.25  4.677683904834791 1 -0.1697896599333611  3.809567698408816 0.5169855892903832 0.2567218768856126  3.785555144257698 0.2467149308422305 0.2532850691577695  4.057159262523371 0.2484603493054467 0.262674903039305  3.928571428571429 0.2801144143990931 0.5  2.455485108950187 0 0.1099427928004536  2.261904761904762 0 1.110223024625157e-16  2.372354349471078 0.3428568893458773 -0.1571431106541228  2.490285937904924 0 -0.1099427928004534  2.380952380952381 0 -0.5  0 1 0  0.310113714212828 1 0.1930322903188487  0.3223160951652088 1 -0.1697896599333612  3.699164843825065 0.4078782280869272 -0.09722094364542182  3.598588372815621 0.6507394019499187 0.1507394019499188  3.525473684069864 0.6792125313320414 -0.1767175225319038  3.307751593881918 0.5000000000000001 -0.001815866716336878  1.891644903637228 0.749449408917498 -0.2771844991115775  1.785714285714286 0.6631962431972787 -0.5  1.666666666666667 1 -0.5  1.904761904761905 1 -0.5  3.072688427878647 0.8269263587499223 0.2368425662780229  3.308259904091839 0.7736603099006234 -0.04337645685841024  3.094158938850376 0.6854875978274445 -0.185743582319869  2.9664764140954 1 -0.1099427928004535  4.49962790425509 0.5392790841123851 -0.2549066113170081  4.677683904834791 0.3302103400666389 -0.5  4.677683904834791 0.6697896599333611 -0.5  4.290814378465049 0.6800675938449077 -0.1701205248458881  4.01588099629412 0.4236413822921424 -0.2251721733546274  4.289184290904884 0.3368979144534173 -0.1631020855465827  1.537904985523971 1 -0.1099427928004535  1.661147224470295 0.6683592571743309 -0.1844329005518637  1.414722057085558 0.7497082746397474 -0.2649079745600766  5 0.3302103400666389 0.1697896599333612  4.760638420147239 0.2758153292087276 4.314465244218496e-17  0.8333333333333331 0.6631962431972787 -0.5  0.7333333333333332 0.675 -0.2381962431972789  0.8333333333333335 0.3368037568027211 -0.5  1.071428571428572 0.5 -0.5  3.527854236358731 0.3229202560618641 0.1770797439381359  3.690476190476191 0.3368037568027209 0.5  3.571428571428572 0 0.5  0.4023296765194846 0.2335971280137547 0.2664028719862453  0.4761904761904762 0 0.5  0.7928438987269019 0.2147975600478668 0.2725804367167295  0.7142857142857142 0 0.5  3.292622950298074 0.456475186179394 0.2800273837622998  3.30538730969268 0.7118866576088448 0.2213079079381846  2.988680186739292 0.6343216290852248 0.1306630426014676  4.494593191315688 0.2319889559994114 -0.2680110440005886  0.3101137142128279 0.6930322903188487 -0.5  0.2380952380952381 1 -0.5  0.4761904761904762 1 -0.5  1.785714285714285 0 -0.163196243197279  1.666666666666666 0 -0.5  1.904761904761905 0 -0.5  4.117369281374938 0.769467153279135 0.269467153279135  4.166666666666666 1 0.163196243197279  4.126798921600684 0.2271998191204386 -0.2947443144326416  4.166666666666666 0.3368037568027213 -0.5  3.928571428571429 0 0.2198855856009069  3.690476190476191 0 0.1631962431972788  3.928571428571429 0 0  3.874046842121247 0.7359216158448313 0.1099427928004533  3.928571428571428 1 0.2198855856009069  4.124955943722148 0.7909570859362144 0.004988115864358322  3.928571428571429 1 -1.110223024625157e-16  1.83776902233338 0.7810758426649322 -0.01519275979241733  1.785714285714286 1 -0.1631962431972787  2.023809523809524 1 -0.219885585600907  4.404761904761905 0 -0.219885585600907  4.404761904761905 0 0  4.677683904834791 0 -0.1697896599333611  4.480532002380717 0.2500628751584742 -0.007614899012562237  0.8333333333333333 0.336803756802721 0.5  0.5952380952380953 0 -0.219885585600907  0.4761904761904763 0 -0.5  0.7210344455242417 0.280114414399093 -0.219885585600907  0.7142857142857144 0 -0.5  4.285714285714286 0 -0.5  4.523809523809524 0 -0.5  4.404761904761905 0.280114414399093 -0.5  3.204571652190638 0.609942792800454 -0.5  3.354085729955097 0.7999853849740506 -0.2644139016846404  3.095238095238095 1 -0.5  1.547619047619047 0 -0.2198855856009069  3.930082870019231 0.2835911087336291 0.01133432048448355  4.06827731092437 0.5294117647058824 0.04341499736561283  3.309166478476679 0.2293329417710386 0.04189121948637774  1.666666666666667 1 0.5  1.639396765839301 0.6720040848768268 0.154152150055457  1.442420800057299 0.7497082746397474 0.3010687743849363  1.503104156569234 1 0.1099427928004535  4.146989230781169 0.5 0.2935649807846209  3.928571428571429 0.5 0.5  5 0.75 0.5  5 0.6697896599333611 0.1697896599333612  4.760638420147239 0.5 0.2241846707912725  4.812107913022352 0.8094338400666389 0.5  1.121733367152961 0.7848096604967844 -0.252147373234523  1.071428571428571 0.719885585600907 -0.5  0.9523809523809523 1 -0.5  1.19047619047619 1 -0.5  3.801528493036142 0.2251608524367992 -0.2521962269673881  3.918857366476352 0.390057207199546 -0.5  3.690476190476191 0.5 -0.5  0.9523809523809526 0 -0.5  0.3223160951652088 0.3302103400666389 -0.5  0 0.25 -0.5  2.94605187829845 0.2066197779263109 -0.2933802220736891  2.997860478346177 0.3587996029107292 -0.1412003970892708  3.214285714285714 0.336803756802721 -0.5  2.976190476190476 0.2801144143990931 -0.5  2.5 0.336803756802721 0.5  2.380952380952381 0 0.5  2.463828747845484 0.3224370323465898 0.1735541427356647  2.619047619047619 0 0.5  2.789802264467589 0.6998668513250919 -0.2015518481155694  2.976190476190476 0.5000000000000001 -0.5  2.976190476190476 0.7198855856009071 -0.5  4.166666666666667 0 0.1631962431972791  4.304158589539886 0.3228594288792958 0.1771405711207043  1.427432849668265 0.7554436243022156 0.006303451563538953  1.309523809523809 1 0.219885585600907  1.309523809523809 1 0  0.6553726012982286 0.2985432030417704 0.08864947800672619  0.5277999009355946 0.4750134886360675 -0.2291644583606461  0.7661124755635456 0.502569140752625 -0.03946157012925419  4.404761904761904 0.719885585600907 -0.5  4.404761904761905 0.5 -0.5  2.459844716504914 0.6726331539853091 -0.1759697935570633  2.252190699809686 1 -0.1099427928004539  2.5 1 0.1631962431972789  2.5 1 -0.1631962431972789  2.490285937904924 0.3900572071995461 -0.5  2.655316858590788 0.2792703444662792 -0.2207296555337208  2.619047619047619 0 -0.5  3.928571428571428 0.719885585600907 0.5  3.80952380952381 1 0.5  3.724702267484807 0.8000751477774605 0.2747943010047709  3.871336600780274 0.67817062117147 -0.1754647513844989  2.9664764140954 0.3900572071995466 0.5  3.214285714285714 0.3368037568027213 0.5  3.092456592034541 0.3162905933840717 0.1844887297426039  2.931675585140663 1 0.109942792800454  2.738095238095238 1 0  2.84290742129172 0.7820529271823687 0.2616442167870098  1.960226429811173 0.4936393325380825 -0.2736019262953222  1.30952380952381 0 0.1631962431972791  1.428571428571428 0 0.5  4.404761904761904 0.5 0.5  4.584666507240599 0.2685664555475826 0.2314335444524175  4.166666666666667 0.336803756802721 0.5  4.166666666666667 0.6631962431972791 0.5  3.452380952380953 0.2801144143990931 0.5  1.386104332767122 0.4803592684040011 -0.2827162361456232  1.156008096766089 0.3171782382881229 -0.1828217617118772  0.5952380952380948 0.5 -0.5 
[...]
<PointData  Vectors="f_11"> 
<DataArray  type="Float64"  Name="f_11"  NumberOfComponents="3" format="ascii">4.9763185034333399e-02 -1.3815803340809476e+00 2.1708120210194165e-03  1.2783336550102770e-01 -1.3387675238381924e+00 2.0788560691026793e-03  2.2538310374477319e-01 -1.4313439358546407e+00 2.3213799065245331e-03  2.2449106716908473e-01 -1.3234915845028981e+00 2.3079204634358108e-03  7.6759422710479017e-02 -1.7544597621573677e+00 2.9345167725759146e-03  2.2565444974679866e-01 -1.7544787499212027e+00 2.8112140102639757e-03  1.2827624796820644e-01 -1.6580782613483473e+00 2.6879472516377670e-03  1.0108805830252800e-01 -1.6462785274341176e+00 2.6670516059823634e-03  -2.1542040401648885e-01 -9.5080122153490576e-01 2.0074551546448451e-03  -1.2958409534412793e-01 -1.0117341068712047e+00 1.7508454939506983e-03  -2.1304930021498569e-01 -8.9800535891237687e-01 2.9093500317450521e-03  -2.1713999798965755e-01 -1.0026019242953230e+00 2.8874639043489623e-03  -5.7511444583960430e-02 -4.5888623081175151e-01 1.1190104865646123e-03  -8.9040912527529714e-02 -4.1180398866895285e-01 1.0291738380995234e-03  -6.4847685746529007e-02 -4.9634016537248365e-01 7.0255050425398126e-04  -1.8318648776430579e-01 -5.0548112955125823e-01 3.1397436645357541e-03  -7.1689816288644778e-02 -3.7325479950981039e-01 1.8187268776916278e-03  -1.5789320133159265e-01 -3.3412405650360005e-01 3.8691771810157416e-03  -4.8361428642443416e-02 -2.9313127452582949e-01 1.8352784826053971e-03  -5.5801907272467491e-02 -3.3295994341886992e-01 4.4423090978823319e-04  -1.8959925202408026e-01 -5.5283178171896008e-01 -5.0159954507890533e-04  -1.7969917880160427e-01 -4.6645397530697852e-01 -4.7225386958093797e-04  -9.8016102316967724e-02 -5.1545604962769098e-01 -5.8282675229721459e-04  -1.8097652631335065e-01 -5.0662691735374343e-01 -3.6361967694290486e-03  -7.8850618186445898e-02 -2.4539392898290469e-01 -3.7431768988331420e-04  -1.5171210037336280e-01 -2.9771336764940004e-01 1.6985350582021377e-03  -1.5236276534122839e-01 -2.9778981186360204e-01 7.6360618488972528e-05  -7.3131097738596815e-02 -2.5417977020492688e-01 1.0623655843371000e-03  -2.6030022697109821e-02 -2.9465807852709285e-02 -1.3621683832608896e-03  -1.4327137857188440e-02 -1.1210206006742190e-02 -4.7883617303147002e-04  -6.6084919862152832e-03 -2.6429277459255839e-02 1.5048088045070408e-04  -3.8323094260271978e-03 -1.2656663898960399e-02 6.1926882041487009e-07  -9.7651030728337640e-02 -3.9295641092496530e-01 1.4728257999696370e-04  -5.2839970173076845e-02 -3.2721554194382241e-01 -4.8071935718216389e-04  -1.8308356698343215e-03 -4.1589618808432077e-01 -6.6578931120503046e-05  -8.8323509758711755e-02 -4.1326936704306000e-01 -9.2459192387795005e-04  0.0000000000000000e+00 0.0000000000000000e+00 0.0000000000000000e+00  1.3155659347948847e-02 -1.4330165232933260e-02 -2.2799431894953239e-04  7.8545217389300426e-02 -1.4551815954897442e+00 2.2510070996642241e-03  2.2481723668879611e-01 -1.5388965768403755e+00 2.2118624982436193e-03  2.2509280321849628e-01 -1.4851247340139735e+00 2.1310755393451554e-03  2.2434268142819858e-01 -1.4309989752042611e+00 1.8736887305912389e-03  9.5048111576812783e-02 -1.0757003550541701e-01 -2.4438228652268377e-03  2.6510206987346820e-02 -7.7987824528978539e-02 -1.0798894528555498e-03  8.3901922668166942e-02 -8.0843339871734213e-02 -5.8656214696586563e-03  7.2833801540949566e-02 -6.2883057437493173e-02 -2.7359572782947187e-03  0.0000000000000000e+00 0.0000000000000000e+00 0.0000000000000000e+00  1.2641996851144768e-02 -9.5849619906859113e-03 1.1823057998760925e-03  0.0000000000000000e+00 0.0000000000000000e+00 0.0000000000000000e+00  4.6944023240392517e-05 -1.7544291241235348e+00 2.9804227199380640e-03  -7.6329894043210583e-02 -1.7544462395182492e+00 3.0289319109534940e-03  2.5736376805735072e-04 -1.6463374669789248e+00 2.7437991568911779e-03  4.2071487579644032e-02 -1.8407889104785866e-01 -1.2061274575876509e-03  2.0287786383678671e-02 -1.4123318263744378e-01 1.3027686709583415e-04  -3.1938172826743196e-02 -1.3142909179316908e-01 1.5830617368284912e-04  5.5285609212032225e-02 -1.2639287851895206e-01 -1.4935907029916050e-03  -8.9755221012788711e-02 -2.9082464294666116e-01 -1.6028702730186935e-03  -8.2897674347593278e-02 -2.2280815381256161e-01 -1.8973169924045277e-03  -4.2623823129793265e-02 -2.2057201508961996e-01 -2.2662494583804175e-03  -1.4275218976988061e-01 -2.5904566401410911e-01 -4.3463648378183868e-03  1.8278866980166025e-01 -5.0597148174735362e-01 2.6231230089710173e-03  1.1041305995225674e-01 -5.6493451614116930e-01 1.1303000924659809e-03  8.2496313055671247e-02 -5.5016947646152381e-01 1.5334084777902793e-03  1.9431499047630552e-01 -5.9946901801066022e-01 2.3605770837018549e-03  -1.7204324521820871e-01 -4.1815708286684500e-01 4.3487932471816182e-03  2.2588600801696657e-01 -1.7545526130572544e+00 2.8248354462963505e-03  2.2577318995958365e-01 -1.6088500058133928e+00 2.5171764472924412e-03  7.2976892217223310e-03 -1.2153808526134053e+00 1.7803089829194526e-03  -1.1246008558320968e-01 -1.2048767033931269e+00 2.0010344196665459e-03  -1.1268934055248583e-01 -1.3274554959862506e+00 2.2291007476394069e-03  -9.8410342709367951e-02 -1.2690429999276880e+00 2.1534833024406891e-03  -1.9589333269084033e-01 -6.3019810616976801e-01 7.8722014298281563e-04  -1.8930520041506771e-01 -5.5272577024070901e-01 4.8108510892316326e-04  -5.9831375482003180e-02 -5.9454612789163752e-01 -9.5454038923308815e-05  -1.9746849547988221e-01 -6.4376968447492633e-01 -9.7090592678595905e-05  -1.9258304938509682e-01 -5.9850927190749603e-01 -1.4201748210144758e-03  0.0000000000000000e+00 0.0000000000000000e+00 0.0000000000000000e+00  3.9918010961375587e-02 -2.4985515803115522e-02 -2.6232994864613412e-03  4.2545710250428456e-02 -2.6329459063879498e-02 2.5504803320857612e-03  -4.0582467845645821e-02 -1.1657928611318016e+00 1.6470174431941736e-03  6.6104388445405282e-02 -1.1207395652669834e+00 1.4668400598942186e-03  7.8613883638022033e-02 -1.0880744939697511e+00 1.5772973142194951e-03  1.9274603448358907e-04 -9.9103889069686169e-01 1.3636080811688725e-03  8.4976005053351886e-02 -4.1204052324813134e-01 8.5491639663673382e-04  5.3095632415405637e-02 -3.7304087891089932e-01 1.1052918789066391e-03  1.5834124030906946e-01 -3.3479019041718616e-01 3.2115018426899507e-03  1.7186390708195584e-01 -4.1814232688541308e-01 4.1162663566355999e-03  1.3828070052910163e-01 -8.8826726752709018e-01 4.8100816923823665e-04  1.1847066902755413e-01 -9.9149249171183784e-01 1.2561086209467089e-03  7.8955655205309186e-02 -8.9775711368243238e-01 1.1668759884427761e-03  2.1042542345842674e-01 -8.4306145429221901e-01 1.0982747419421999e-03  1.7958396832789030e-02 -1.5281715274252337e+00 2.4805342355415779e-03  -7.5945511034462704e-02 -1.6088823535743371e+00 2.6974795379404266e-03  7.7028482240702426e-02 -1.6088835289021675e+00 2.6386163601307554e-03  8.1042881336577971e-02 -1.4335028410418351e+00 2.2397437193520855e-03  -3.3836642049234901e-02 -1.3088661987906334e+00 1.9958698089186369e-03  -7.3004151384827090e-02 -1.4327825470406321e+00 2.3070871256301662e-03  1.5162106167101616e-01 -2.9493979584973284e-01 5.2053326865613228e-04  5.2853364677639236e-02 -3.3209046285055593e-01 5.9855040235480485e-04  7.0373497120192072e-02 -2.5404080999854156e-01 1.3704810862178003e-03  -7.6664302240471285e-02 -1.7543538788493069e+00 3.0372957030910157e-03  -1.0099556075419931e-01 -1.6462702842534820e+00 2.8214211469011472e-03  2.9338792303514789e-02 -1.0301847951546496e-01 1.8144970283241479e-03  2.8890922833663308e-02 -8.2868097834119872e-02 1.2801418851856839e-03  -2.9970771858649790e-02 -1.0249204197282887e-01 -2.4295881128955825e-03  7.3853564378798496e-04 -1.5572367168179610e-01 -3.4589607178031070e-04  -7.7436005299123215e-02 -1.0891892404847847e+00 1.7555318132359166e-03  -7.2384860573371929e-02 -1.1615530894681831e+00 2.0204229628029429e-03  -2.2062913005054036e-01 -1.1085016981003208e+00 2.4168496816243273e-03  -2.4227514906138548e-02 -2.9427844680584424e-02 1.7536773911923506e-03  -6.2520903709074510e-02 -4.2892077369618871e-02 6.8305998235077573e-03  -5.0523875213490547e-02 -9.5405034830509550e-02 1.8305274843967989e-03  -7.7843042394136627e-02 -8.2984481720001613e-02 6.7028342617740464e-03  -1.8820632783190534e-02 -9.8410050794445914e-01 1.3516816061449367e-03  9.1138352947846155e-02 -9.9011602880352811e-01 1.0071482608029864e-03  5.6294544260120351e-02 -8.5143939300358429e-01 6.7932581930921058e-04  -1.2034832993161268e-01 -1.5259447001863158e+00 2.5383972274542121e-03  1.5622919762299969e-02 -1.8074360464685316e-02 2.5449208564795604e-03  3.1568174569013195e-02 -1.6723743102532801e-02 7.3096406464827623e-03  5.9069730747858873e-02 -4.1894523963595956e-02 7.3274449489744804e-03  -1.6526558552771256e-01 -3.7731543869979961e-01 -1.3081073089797465e-03  -1.6034769719903880e-01 -3.3504199001465423e-01 -3.4908411871306978e-03  -1.7328817924134077e-01 -4.1809714905952172e-01 -4.1268812547137750e-03  1.2039815357482214e-01 -1.3546881246747109e+00 1.8951251959392450e-03  2.2455471853406120e-01 -1.3772697599319519e+00 1.8626211547439148e-03  -1.2184672936560892e-01 -1.3592120023555099e+00 2.1139409206367130e-03  -7.2551376640089107e-02 -1.3772339061270640e+00 2.1404571070846017e-03  -2.2351466356679139e-01 -1.2696394153464325e+00 2.2891007556656373e-03  -2.2179390308539115e-01 -1.1624157773344299e+00 2.0015838875172792e-03  -2.2339513828403076e-01 -1.2697535377760336e+00 2.1449905761735306e-03  1.0494209556413479e-01 -1.2447252200982752e+00 1.6954558363615575e-03  2.2327093385392247e-01 -1.2695050371438019e+00 1.5254339642914760e-03  1.3045320120183806e-01 -1.3583076645897041e+00 1.9981399822746955e-03  2.2341656843812957e-01 -1.2696562473708661e+00 1.7441468027775686e-03  9.4752287379782321e-02 -3.9264666838410212e-01 8.0258733655917271e-05  1.6583457946335686e-01 -3.7719182333936740e-01 1.3116589130826367e-03  1.7890577862301121e-01 -4.6180888026353362e-01 1.2126336536823065e-03  -2.2494988376271585e-01 -1.4852885179050119e+00 2.5122607683726959e-03  -2.2513288955693198e-01 -1.4852242659158619e+00 2.5762253204335349e-03  -2.2531183591613632e-01 -1.6088461216880852e+00 2.8076363899885446e-03  -1.1243840869105959e-01 -1.5195018329116310e+00 2.5454283154878942e-03  -2.9561251721956044e-02 -1.0052812101345260e-01 1.4648338160820084e-03  -7.1744402844924990e-02 -6.1224932620616485e-02 -2.4948677209033535e-03  -5.9918651798218751e-02 -4.1880338145027965e-02 -5.5127755914253732e-03  -3.6995261656864301e-02 -7.9404469821935372e-02 -1.2008154527473061e-03  -8.4332128106816229e-02 -8.2607461674497132e-02 -7.1691917405213093e-03  -2.2428527023180139e-01 -1.4313554469680838e+00 2.2809089739594412e-03  -2.2478204023014367e-01 -1.5392730170998821e+00 2.5797846895936468e-03  -9.8336073645063610e-02 -1.4852236958745126e+00 2.3771283467471978e-03  4.7628207265518648e-02 -9.4538145484351943e-01 1.4217493588942235e-03  1.3047901811111365e-01 -1.0118134647160766e+00 1.5377998120943003e-03  2.1314967061134740e-01 -8.9866440317741469e-01 2.3874962571745978e-03  -1.5128281798219625e-01 -2.9708340384192999e-01 -1.2745975066460308e-03  -9.6508111586613404e-02 -1.2700452590218863e+00 2.0032968267197750e-03  1.3143360651267547e-02 -1.3325588069330871e+00 2.0364812449452110e-03  -1.1719385626560910e-01 -9.9180790522375462e-01 1.4621080348904527e-03  1.5878230071269137e-01 -3.3421082558307708e-01 -4.1233439740052235e-03  5.3280325569613582e-02 -3.2547349917525525e-01 -6.5702037888641987e-04  7.0433090602999085e-02 -2.6154041519847832e-01 -1.7399193693177827e-03  1.4938835144530760e-01 -2.8319088492603522e-01 -9.9273616539580808e-04  -2.2282671488206899e-04 -1.3680547224449477e+00 2.0901101276655097e-03  -3.3191483655657401e-04 -1.2689663849336101e+00 1.9327262639051042e-03  1.1222626183897466e-01 -1.7541841949033865e+00 2.8894144483799550e-03  7.6422161673855099e-02 -1.7543470688273211e+00 2.9253104141489790e-03  -1.6537549691970270e-04 -1.6461645104227380e+00 2.7419774397470379e-03  1.3901384514067794e-01 -1.6693056285978074e+00 2.6475532367186121e-03  6.8743970809767393e-02 -1.7205809312271059e-01 1.1048730140046125e-03  5.1368300503273991e-02 -1.5833246056690090e-01 1.7596376977013163e-03  1.0400352516214541e-01 -1.3269541111183347e-01 4.0485538772736494e-03  1.2626434296695832e-01 -1.9125614166037785e-01 4.3391118382854589e-03  -1.2166202702970341e-01 -1.2121232745335506e+00 1.7613063881213903e-03  -4.8371698648124850e-02 -1.2649294571200593e+00 1.8758603622502337e-03  6.2237038750062612e-04 -1.1617984583031553e+00 1.6284103552478499e-03  -1.0549964518220487e-01 -1.3080183290576325e-01 -5.3073657387721499e-03  -1.3921848892970814e-02 -2.1582351805325493e-02 -2.3985338671228861e-03  0.0000000000000000e+00 0.0000000000000000e+00 0.0000000000000000e+00  -1.2220768647709383e-01 -8.3355293595454372e-01 3.3288161008468263e-04  -5.8809343427817580e-02 -8.5562607519132239e-01 8.4651746584436837e-04  -6.9169648022329430e-02 -9.4988350682410005e-01 7.6220964821010898e-04  -9.1386381202608530e-02 -8.4622277128786472e-01 3.5659875485245384e-04  -6.4629469129295500e-02 -6.4517601456276519e-01 1.0290835644080195e-03  -1.9438919604366575e-01 -5.9891561851829012e-01 2.7679677258124697e-03  -6.9257882432223195e-02 -6.3144565641360173e-01 6.9062961834599171e-04  -2.0192379138701866e-01 -6.9541128721854051e-01 2.4246927003180861e-03  8.2237188799510155e-02 -7.6699866439254749e-01 9.4770654883793374e-04  8.2716374938548477e-04 -8.4581020059290402e-01 9.4152482333497030e-04  9.2547037502615712e-02 -8.4617154605713540e-01 1.6870154296838621e-03  -2.2469675038703169e-01 -1.3772816657259157e+00 2.3805963835047054e-03  -7.9667347436289532e-02 -1.4394393403748269e+00 2.3713232794804959e-03  7.1908135271953444e-02 -2.5694149154496071e-01 -9.0955325861510571e-05  1.3477581910840675e-01 -2.2500657522861447e-01 -2.1834944097135194e-03  1.3290970321051135e-01 -2.2531345444929068e-01 -1.5991610106084968e-04  -3.0762571082426513e-02 -6.9365902687559503e-02 2.5502708018372637e-04  -4.2620688293534426e-03 -4.7447202821595508e-02 -1.8933084034515490e-04  1.1110520884783895e-03 -8.8023629504882794e-02 -6.5036197241706236e-04  9.9460073517069161e-02 -1.4852183730623931e+00 2.3828926483237195e-03  5.2282570303765509e-04 -1.4851677906512009e+00 2.3945472094778794e-03  6.7123046463535993e-02 -6.3004590190763332e-01 5.4215592168391311e-04  1.8953832358452929e-01 -5.4927936656633392e-01 3.7738731610981001e-04  1.9697315960368628e-01 -6.4769825404864378e-01 -6.0783008542371266e-04  1.9926622344825085e-01 -6.4802585884056785e-01 8.1886966581789231e-04  -4.2304540676921243e-02 -6.4145738927679941e-01 -2.1268547151268548e-04  -8.8530469852103971e-02 -7.1019289178011158e-01 2.6173124784834766e-04  -1.9988775365891168e-01 -6.9613214787904421e-01 -1.8001610811241421e-03  9.7474034246915836e-02 -1.2690968057843084e+00 1.6192807843216593e-03  2.2202099873177999e-01 -1.2154764860663034e+00 1.1563892917512400e-03  1.3266515550790953e-01 -1.1772376974414389e+00 1.3927445584576280e-03  7.9397070232060440e-02 -1.2435643900259818e+00 1.8568467574879208e-03  -4.6518048951861520e-02 -8.4130865102952179e-01 1.3946328522031102e-03  -7.0261652055386439e-02 -9.4942406201204210e-01 1.8226067705353853e-03  -7.8016651359304037e-02 -8.9672517824002140e-01 1.3200348122825263e-03  2.0877110917195971e-01 -8.2825437951712755e-01 5.4474315497763802e-04  2.0492304834081795e-01 -7.4575060541627802e-01 4.6362544667783654e-04  1.1589167741400311e-01 -7.8958718892420388e-01 1.7193397765823693e-04  -1.7233169062957346e-03 -4.3541287835384668e-01 -1.8229803195955385e-04  -1.3458838190284209e-01 -2.2602136742891840e-01 1.9754788237576373e-03  -1.4252635110828327e-01 -2.5955129471201727e-01 5.8717210471596346e-03  -4.6628343289573592e-04 -1.4848307185390952e+00 2.3897656363801507e-03  -1.0439147951863421e-01 -1.5665436635466692e+00 2.6711058389459539e-03  -7.3477568302364446e-02 -1.3768495864517034e+00 2.3102331050175169e-03  7.2557722417651960e-02 -1.3768390914622182e+00 1.9562814752953185e-03  -9.6265689303018084e-02 -1.0548884222642001e+00 1.9108376766925207e-03  -5.1255807052817222e-03 -2.4325818906144347e-01 -2.8329017616254159e-04  -4.4173091624301906e-02 -1.8012686252165616e-01 -9.3879438363446270e-04  1.9629193494817503e-04 -5.5920283172002462e-02 3.9848695394540968e-04  -2.9789759353567698e-02 -5.7568389255813562e-02 -3.4839480623538996e-03  6.5386308032133661e-02 -4.9870497330150199e-01 5.6747353018269308e-04  6.3613952045993363e-02 -4.2452304690713955e-01 -7.0340619581016285e-04  1.6564943438186144e-01 -3.7682771528111469e-01 -1.9869009317728535e-03  1.7800923555000306e-01 -4.6157618748667162e-01 -1.5833107075492502e-03  0.0000000000000000e+00 0.0000000000000000e+00 0.0000000000000000e+00  0.0000000000000000e+00 0.0000000000000000e+00 0.0000000000000000e+00  -2.9618900007703310e-02 -5.9167579376450528e-02 3.8293054500252743e-03  -3.1818285131120221e-02 -1.7483733524988988e-02 4.7577468124337897e-03  -4.2656188703405963e-02 -2.6534554117156679e-02 1.6805168376874042e-03  -1.3651643400824373e-02 -1.1252636347833359e-02 8.6324044608624534e-04  2.1518349760737199e-01 -9.5104030822824348e-01 1.6011686037522479e-03  2.1711613379098010e-01 -1.0029711183395684e+00 2.5171775076904919e-03  -6.9234119687956286e-02 -6.0242873555971750e-02 -6.8477635782921960e-04  1.5524306332877644e-04 -3.7216372774570328e-01 -2.2341112939807859e-04  -2.2595678022477042e-01 -1.7542049348242141e+00 3.1980413073786585e-03  -2.2591783654482819e-01 -1.6466164549911608e+00 2.9954935078736781e-03  -1.3991378420958997e-01 -1.6692904329986562e+00 2.9418479132889146e-03  -1.3978212888571401e-01 -1.7543061493734244e+00 3.1035583750730097e-03  -1.1314744694566070e-01 -1.7541918445973825e+00 3.0870980400939866e-03  -7.6934882525355769e-02 -1.6084850631845418e+00 2.7378505660667130e-03  2.2589924906917075e-01 -1.5392541354215383e+00 2.4404632346208131e-03  1.3284198481838952e-01 -1.4978015720884155e+00 2.3759751857506573e-03  -8.2597238807926215e-02 -7.6607704853481340e-01 1.0817860043667372e-03  -2.0857060229366395e-01 -7.9544793335893049e-01 2.5792649807802634e-03  -2.1075768652966845e-01 -8.4704967610402204e-01 1.9473766200816382e-03  3.4100324400933303e-05 -1.5570956627331674e+00 2.5475716629928162e-03  2.0407754988800672e-01 -7.4649855485063987e-01 1.1069689984371340e-03  2.0152521838179011e-01 -6.9626315077168355e-01 1.8386820932487300e-03  -9.3990049761714370e-04 -2.2026337154450396e-01 -5.8209518474230395e-04  -2.5132281657738724e-02 -1.5851577930567376e-01 4.0991713600092877e-04  2.4893450534453597e-02 -1.6774000479039608e-01 -1.3108376156555092e-03  0.0000000000000000e+00 0.0000000000000000e+00 0.0000000000000000e+00  -4.0672156876409198e-03 -1.2819349817995108e-02 4.2551365791054151e-04  2.9982026125867704e-02 -5.6949997018438378e-02 -3.4576928304626640e-03  3.2075322792436890e-02 -4.6944718766289480e-02 -2.4469264698757996e-03  -2.0635384575876306e-01 -7.9586840622969446e-01 -6.1083446118704698e-04  -2.1246756491616836e-01 -8.9865430173020056e-01 7.0911562457408569e-05  -6.4276970369608138e-02 -2.9361575236920889e-01 -1.3897263706865340e-03  -3.4612599320693896e-02 -3.6964949661163660e-01 -5.5109287485471600e-04  -2.0462332420029702e-01 -7.4575222990722367e-01 1.3388728716503392e-03  7.1367443134997696e-02 -6.2231321822616745e-02 2.8352432204477762e-04  5.7211066655067609e-02 -1.1031903922448499e-01 -4.3901535345342317e-04  -3.1159388605726888e-02 -1.7694819806538201e-02 -4.5650087643854314e-03  -1.6607787841755553e-01 -3.7701949785492977e-01 1.5243634595712950e-03  3.4703734404315040e-02 -5.6324312052450209e-01 5.5615194685612116e-05  1.8729789404856204e-01 -5.3581703272607861e-01 -5.5651443605479929e-04  4.2626668892236326e-02 -6.2739152167683765e-01 6.6946742724705672e-04  1.2506002506956468e-01 -1.9049382670210011e-01 -4.8040818599397721e-03  1.4279966051862522e-01 -2.5963580417974569e-01 -5.9440113348230945e-03  9.7590859524294055e-02 -1.1619259534304214e+00 1.8815597311466223e-03  2.2176743251190056e-01 -1.1624142108971842e+00 1.6298138135255511e-03  2.2312287998865421e-01